"material_id","formula_pretty","band_gap","nsites","nelements","volume","density","density_atomic","crystal_symmetry","symmetry_number","sides_abc","angles_abc","uncorrected_energy_per_atom","energy_per_atom","formation_energy_per_atom","energy_above_hull","is_stable","efermi","is_magnetic","total_magnetization","num_magnetic_sites","atomic_number"
"mp-3407","TlCr5Se8",0,14,3,303.993562071428,5.98704635783396,21.7138258622449,1,12,3.66920034812718,104.768798567904,-6.14823682357143,-6.41795110928571,-0.804010229434523,0,TRUE,4.20675455,TRUE,15.000674,5,415
"mp-3408","CeAlO3",0,10,3,106.892614118525,6.68287289912168,10.6892614118525,2,167,5.31034172865338,60.4190235000083,-8.112781815,-8.524981815,-3.62123559125,0.000638455999999,FALSE,10.61943981,TRUE,2,2,87
"mp-3411","Tl(MoSe)3",0,14,3,326.273617689968,7.42120255402354,23.3052584064263,6,176,9.15164474657292,90,-6.96980764642857,-7.17209336071429,-0.688189373623512,0,TRUE,5.34125332,FALSE,0,0,191
"mp-3412","Eu(CuSi)2",0,5,3,82.4238861815982,6.75359480688253,16.4847772363196,4,139,4.0856555701786,110.921400462815,-6.32583089,-6.29743089,-0.436220650000001,0,TRUE,6.2454969,TRUE,6.7341569,1,106
"mp-3414","AgSbF6",1.7739,32,3,453.816909516192,5.02927175455889,14.181778422381,3,206,8.38514487527932,109.470630029373,-4.3192260853125,-4.6657260853125,-2.36192220427083,0,TRUE,-0.50672885,FALSE,0,0,143
"mp-3415","Yb(SiRu)2",0,5,3,82.3345553141029,8.69956950862753,16.4669110628206,4,139,5.54327064397933,135.558693274533,-6.996118414,-6.967718414,-0.779908529999999,0,TRUE,6.2515949,FALSE,0,0,128
"mp-3416","Na3AlF6",6.7197,20,3,227.48759048668,3.06492035491563,11.374379524334,1,14,5.33880368434403,90,-5.0358710605,-5.3130710605,-3.39486850896552,0,TRUE,-1.58874473,FALSE,0,0,80
"mp-3417","Ca(BO2)2",5.1974,28,3,308.087051578958,2.70995842646593,11.0031089849628,7,60,4.28918193,90,-7.74502184678571,-8.13759327535714,-3.11600209440476,0.0133263071428721,FALSE,0.96379116,FALSE,0,0,33
"mp-3419","RbAuF4",2.4513,12,3,226.831801413101,5.24779737791315,18.9026501177584,4,140,6.19837165906664,114.928221655497,-3.74690338833333,-4.05490338833333,-2.07151473125,0,TRUE,-2.81001755,FALSE,0,0,143
"mp-3421","CuCN2",0,8,3,93.5151125475542,3.67816906800411,11.6893890684443,7,63,3.63942349306549,90,-7.1317923025,-7.3122923025,0.187923200625,0.187923200625,FALSE,2.99697533,FALSE,0.0001306,0,42
"mp-3427","LiAlO2",4.5899,16,3,165.672464565822,2.64292460077157,10.3545290353639,4,92,5.15441713,90,-6.626988158125,-6.970488158125,-3.08351912833333,0,TRUE,1.54890695,FALSE,1e-07,0,24
"mp-3428","SmBPd3",0,5,3,82.8796318966946,9.6256996568239,16.5759263793389,3,221,4.359961,90,-5.97277519,-5.97277519,-0.585250522833334,0.107939256818183,FALSE,4.96328576,FALSE,8.35e-05,0,159
"mp-3430","Pr2Ru2O7",0,22,3,291.266722306364,6.79514690519536,13.2393964684711,3,227,7.44049716390995,60,-7.75010504681818,-8.187286865,-2.48388344965909,0.0424824600454574,FALSE,4.30764295,TRUE,2.1017095,4,151
"mp-3432","ScNiSb",0.2679,3,3,56.2666265085161,6.65227314622775,18.7555421695054,3,216,4.30119024764329,60.0000032743921,-6.31346292,-6.37746292,-0.963593911666667,0,TRUE,7.3709767,FALSE,0,0,100
"mp-3433","YMgNi4",0,6,3,83.6533820517508,6.90757217008682,13.9422303419585,3,216,4.90892436300463,60.0040542731617,-5.58676951,-5.58676951,-0.388886529444444,0,TRUE,6.01435803,TRUE,0.7015025,4,135
"mp-3435","Nd3Cu3Sb4",0.198300000000001,20,3,463.694012434201,7.95295678729756,23.18470062171,3,220,8.44535277383607,109.471230532061,-5.0802473855,-5.1570473855,-0.845240658750001,0,TRUE,6.61160715,FALSE,0,0,331
"mp-3437","Ce(CoSi)2",0,5,3,76.2799410752326,6.83880938614418,15.2559882150465,4,139,4.00856711630169,111.254112880748,-6.965245664,-6.936845664,-0.736773502999999,0,TRUE,8.26456701,TRUE,0.3356586,3,99
"mp-3439","SbPO4",4.0021,12,3,164.574790133288,4.37358471813275,13.7145658444407,1,11,4.77058131349301,90,-6.78643374583333,-7.24443374583333,-2.35625731388889,0,TRUE,2.73254173,FALSE,0,0,90
"mp-3440","Li2(LuGe)3",0,16,3,320.508344872922,7.84088722439736,20.0317715545577,7,63,5.95466817376216,90,-4.546792453125,-4.546792453125,-0.640569845833333,0.086224518055558,FALSE,2.99106725,FALSE,0.0138004,0,138
"mp-3441","Y(SiRh)2",0,5,3,81.3184508215117,7.16520023480508,16.2636901643023,4,139,4.04126240266371,110.60797230961,-7.532549142,-7.532549142,-1.12340455933333,0,TRUE,7.15469218,FALSE,1.4e-06,0,98
"mp-3442","CaTiO3",2.2434,10,3,112.413125157221,4.01623910238059,11.2413125157221,4,140,5.44114334424895,120.845490732106,-8.074398432,-8.486598432,-3.53836682591667,0.0184837075000015,FALSE,3.35821652,FALSE,0,0,58
"mp-3443","Cd(GaO2)2",1.5793,14,3,161.028865847982,6.51422215393924,11.5020618462844,3,227,6.10669515582447,60.0000009975996,-5.46752867357143,-5.86010010214286,-2.03640915214286,0,TRUE,1.5750321,FALSE,0,0,87
"mp-3444","ErTaO4",4.0507,12,3,143.996465026842,9.50692285869578,11.9997054189035,1,13,5.07901304180326,90,-9.3218328725,-9.7798328725,-3.74445765833333,0,TRUE,2.2951969,FALSE,0,0,165
"mp-3446","SrTm2O4",3.8156,28,3,391.950648632981,8.29503062795702,13.9982374511779,7,62,3.34610249,90,-7.76286812428571,-8.15543955285714,-3.80859396071428,0,TRUE,1.90576355,FALSE,0,0,131
"mp-3447","Th(CrGe)2",0,5,3,92.7260333115342,8.61931068700193,18.5452066623068,4,139,6.08515344713369,139.880901526003,-7.479977894,-7.479977894,-0.286776113999998,0.105024523666667,FALSE,7.01047366,TRUE,4.7289339,2,146
"mp-3448","KMgF3",6.9537,5,3,62.9720284629348,3.17484498484738,12.594405692587,3,221,3.97846823,90,-4.959704424,-5.236904424,-3.5478812441,0,TRUE,-1.50326687,FALSE,0,0,49
"mp-3451","BaVS3",0,20,3,470.982303354036,4.01172401941986,23.5491151677018,7,36,6.80999414176153,80.1641305811254,-6.050749342,-6.352549342,-1.670103219875,0,TRUE,4.64890685,TRUE,4.0000022,2,111
"mp-3453","Er(MnGe)6",0,13,3,187.112879609028,8.27751715196967,14.3932984314637,6,191,5.14695744002203,90,-7.03720707384615,-7.03720707384615,-0.323516482122016,0,TRUE,7.0235611,TRUE,12.8087988,7,253
"mp-3455","Er(NiP)2",0,5,3,68.0943551455308,8.4519745211586,13.6188710291062,4,139,3.83382841169539,110.923470510651,-6.39691386,-6.39691386,-1.00599442333333,0,TRUE,8.69012965,FALSE,4e-07,0,111
"mp-3456","Tb(CuSi)2",0,5,3,77.9900064873714,7.28576838113744,15.5980012974743,4,139,3.97745181318755,110.51157533527,-5.33770472,-5.30930472,-0.57262162,0,TRUE,7.36312816,FALSE,0,0,108
"mp-3457","ErP5O14",5.4441,80,3,970.184390180652,3.73888767748441,12.1273048772582,7,62,8.65860921,90,-7.387266444125,-7.868166444125,-2.82377277908333,0.0093597931250002,FALSE,0.99369846,FALSE,0.3898986,0,128
"mp-3462","TmSnAu",0,3,3,72.6235161077432,11.0806412819657,24.2078387025811,3,216,4.68307167387541,60.000002104365,-4.75482081333333,-4.75482081333333,-0.835057720555556,0,TRUE,5.62244789,FALSE,1e-07,0,198
"mp-3463","CaTi2O4",0,14,3,153.414466595962,4.32542841680686,10.9581761854258,7,63,5.14758271168225,90,-8.32358264642857,-8.716154075,-3.34710568095238,0.0245282503571449,FALSE,7.04854625,FALSE,0.0665466,0,66
"mp-3464","FeSiRu2",0,4,3,50.7257308010886,9.36469979929005,12.6814327002721,3,225,4.15509612380036,60.0000061211291,-8.4772964325,-8.4772964325,-0.366260352499999,0,TRUE,8.72540956,TRUE,4.0882311,3,84
"mp-3465","LaB2Rh3",0,6,3,81.9677798092297,9.5061491938048,13.6612966348716,6,191,5.47619899,90,-7.38927598,-7.38927598,-0.657990270555555,0.0176128713333332,FALSE,8.15320733,FALSE,6e-07,0,152
"mp-3466","PrAlO3",4.1325,10,3,107.09578105966,6.69474444669023,10.709578105966,2,167,5.31316182072625,60.4327144992793,-7.920634387,-8.332834387,-3.65952484325,0,TRUE,5.0146354,FALSE,0,0,88
"mp-3467","SmB2Ru3",0,6,3,79.7261394721413,9.89731705761964,13.2876899120236,6,191,5.51436504,90,-8.08607379,-8.08607379,-0.435977573888889,0.0026380233333309,FALSE,6.43380131,FALSE,8.1e-06,0,155
"mp-3468","NaAsO2",3.7378,32,3,493.215107893538,3.49901546462154,15.4129721216731,7,61,5.05524144,90,-5.4908139815625,-5.8343139815625,-1.86555870132543,0,TRUE,0.43649793,FALSE,0,0,52
"mp-3469","ZrNi2Sb",0,8,3,126.378329391886,8.68176723815935,15.7972911739858,6,194,4.19378187,90,-6.6168242475,-6.6648242475,-0.605580440000001,0,TRUE,8.15064137,FALSE,0.0185019,0,119
"mp-3470","MgSiO3",4.664,40,3,414.537150667558,3.21706960018884,10.3634287666889,1,14,8.7965239,76.6681482814156,-7.19109356925,-7.60329356925,-3.2301607265,0.0059838027499967,FALSE,3.2018488,FALSE,0,0,42
"mp-3471","La2Ni5B4",0,11,3,138.85651280128,7.34886443614773,12.6233193455709,1,12,5.12091638187954,70.5070936558234,-6.42997932090909,-6.42997932090909,-0.476318894242425,0,TRUE,8.59175194,FALSE,2.8e-05,0,184
"mp-3474","LaCuO3",0,10,3,114.501288105387,7.26422327876873,11.4501288105387,2,167,5.41069290113094,60.988726512171,-6.787475158,-7.199675158,-2.42461917625,0,TRUE,7.11389523,FALSE,0.0002801,0,102
"mp-3476","P2PbO6",4.4257,72,3,1016.47206561386,4.77207999114032,14.1176675779703,1,14,8.00542535000258,88.7513866352697,-6.94363053847222,-7.40163053847222,-2.48836561060185,0,TRUE,1.58745934,FALSE,0,0,137
"mp-3477","MgAgAs",0,3,3,62.4519364124424,5.50645865675993,20.8173121374808,3,216,4.45335143684506,60,-3.24125322333333,-3.24125322333333,-0.210601737222222,0.140054106527777,FALSE,3.95478935,FALSE,4e-06,0,92
"mp-3479","CaAl9Ni",0,22,3,386.008844559808,2.93904591388381,17.5458565709004,6,194,7.5095074876077,90.0000009476961,-4.01300847545455,-4.01300847545455,-0.2406522,0,TRUE,6.84616937,FALSE,1.5e-06,0,152
"mp-3481","KSnAs",0.3352,6,3,190.646092807966,4.05418317494901,31.7743488013276,6,186,4.14643325,90,-3.656096675,-3.656096675,-0.396400272666667,0,TRUE,3.28889822,FALSE,0,0,102
"mp-3486","KSnSb",0.2609,6,3,220.792889427965,4.20515429763791,36.7988149046608,6,186,4.41537884,90,-3.41726134,-3.48126134,-0.398270659333333,0,TRUE,3.64084833,FALSE,0,0,120
"mp-3487","Ca3(PO4)2",5.4644,13,3,146.735985138635,3.51011762564841,11.2873834722027,2,166,6.89615018636893,44.5443113940297,-7.20243301538462,-7.62520224615385,-3.28543960435897,0.0413346453205125,FALSE,3.11201075,FALSE,0,0,79
"mp-3488","Na2Ti3O7",2.7103,24,3,289.745153806577,3.45668795603304,12.0727147419407,1,11,3.79164808,78.1201953724621,-7.84323476,-8.24398476,-3.16412245869612,0,TRUE,1.33285394,FALSE,0,0,103
"mp-3489","Nd(FeSi)2",0,5,3,77.892004167562,6.65356129735955,15.5784008335124,4,139,4.00998409042717,110.92902945075,-7.135482704,-7.107082704,-0.5953175215,0,TRUE,6.23187909,FALSE,3.08e-05,0,100
"mp-3491","NbSbO4",2.4311,24,3,329.266195985427,5.62137785033627,13.7194248327261,7,33,4.95855175,90,-7.73549129625,-8.19349129625,-2.52398110875,0,TRUE,3.20948477,FALSE,0,0,116
"mp-3494","CeGa3Pd2",0,6,3,107.05795018133,8.71892765769869,17.8429916968883,6,191,5.37994996245342,90,-4.95643935833333,-4.95643935833333,-0.726915884583333,0,TRUE,5.68805073,TRUE,0.8909492,1,166
"mp-3496","S3(NO)2",1.6974,14,3,300.216804006977,1.7280055921065,21.4440574290698,1,15,8.84892774194281,84.0006770672642,-5.72785546,-6.02728403142857,-0.459324478124999,0.193408902678572,FALSE,0.01224445,FALSE,0.0005015,0,47
"mp-3497","FeCuS2",0,8,3,141.712766831251,4.30086571387576,17.7140958539064,4,122,6.32576447318259,130.829509692936,-5.4739445,-5.7254445,-0.5149125965625,0.12116905375,FALSE,4.43645935,TRUE,6.0792975,2,71
"mp-3498","HfGaNi2",0,4,3,54.3145919798263,11.1773416408363,13.5786479949566,3,225,4.25086322630385,60.0000034617336,-6.6935259475,-6.6935259475,-0.557136344375,0.0088062910322594,FALSE,6.44091187,FALSE,3.33e-05,0,131
"mp-3499","MnSbPd2",0,4,3,67.9940304901128,9.51323427934674,16.9985076225282,3,225,4.5813688769382,60,-6.239910645,-6.239910645,-0.327215606982758,0.0425397942068954,FALSE,6.82276898,TRUE,4.2675451,1,122
"mp-3501","Er(Fe2Ge)2",0,14,3,201.180151222151,8.84694072081225,14.3700108015822,4,136,7.204362,90,-7.10930636571429,-7.10930636571429,-0.295897885714285,0.0244011742857113,FALSE,5.77193385,TRUE,12.3963967,10,126
"mp-3502","Zn2Te3O8",3.2965,26,3,381.535590508805,5.58492476586743,14.6744457888002,1,15,6.8301077201957,81.1312349538822,-5.15047602730769,-5.57324525807692,-1.60994413576923,0,TRUE,2.7431008,FALSE,0,0,190
"mp-3503","Li6WN4",3.0574,22,3,215.167806908738,4.34510170330661,9.78035485948809,4,137,6.64356555,90,-6.03417212090909,-6.16544484818182,-0.914749654545454,0,TRUE,1.49682891,FALSE,0,0,110
"mp-3504","NbNi2Sn",0,4,3,59.6096234078224,9.16500729568339,14.9024058519556,3,225,4.38473945165297,60,-6.6139991925,-6.6139991925,-0.19621162875,0.0519208698387121,FALSE,9.04703614,FALSE,8e-06,0,119
"mp-3507","Lu(SiPd)2",0,5,3,82.480761484048,8.93836090314854,16.4961522968096,4,139,4.06635539814119,110.678968214024,-6.046241022,-6.046241022,-0.899970982,0,TRUE,6.06505373,FALSE,2e-07,0,131
"mp-3513","Dy2Al3Si2",0,7,3,132.026683946823,5.81216622566155,18.8609548495461,1,12,4.03476171,100.271041432295,-5.02054442857143,-5.00025871428571,-0.528696252857143,0,TRUE,6.52151719,FALSE,0,0,106
"mp-3515","Y(CoB)2",0,5,3,58.783787654625,6.45173734524705,11.756757530925,4,139,3.53435983549533,109.369551808684,-7.3696354,-7.3696354,-0.561257350999999,0,TRUE,5.35506598,FALSE,0,0,71
"mp-3516","UTeO5",1.8368,28,3,423.511228133121,6.98899281519478,15.1254010047543,7,57,10.17408576,90,-7.80998274321429,-8.30069702892857,-2.70524567755952,0.0003524183928576,FALSE,2.98313722,FALSE,0,0,176
"mp-3519","ZrSO",2.4195,12,3,187.388455910743,4.93720551994681,15.6157046592286,3,198,5.722436,90,-8.3281232575,-8.72478992416667,-2.84784352145833,0,TRUE,4.00326534,FALSE,0,0,64
"mp-3520","Y2SiO5",4.7661,32,3,429.215013030796,4.42424867352243,13.4129691572124,1,15,7.96620319304475,61.1421326515641,-8.7497096034375,-9.1790846034375,-3.79262162682292,0,TRUE,1.89247887,FALSE,0,0,85
"mp-3521","NaBF4",7.8463,12,3,136.843223823746,2.66462387603309,11.4036019853122,7,63,4.52468206005222,90,-5.53391445083333,-5.84191445083333,-3.23394229511973,0,TRUE,-3.27112384,FALSE,0,0,43
"mp-3522","MgCuSb",0,3,3,59.1039767166945,5.88906658442794,19.7013255722315,3,216,4.37230599148083,60.0000006278116,-3.54788472,-3.61188472,-0.335722066666667,0,TRUE,6.52196048,FALSE,2e-07,0,92
"mp-3523","SrGd2O4",3.0774,28,3,424.731840317566,7.28936623965954,15.1689942970559,7,62,3.46932115,90,-10.3485173464286,-10.741088775,-3.65130409238095,0.0110287399999986,FALSE,2.10990604,TRUE,55.9999988,8,126
"mp-3524","LiPN2",3.811,8,3,73.7925650750163,2.9671360110288,9.22407063437704,4,122,4.52383559779818,117.986241066054,-6.8088135525,-6.9893135525,-0.990509746666668,0,TRUE,4.32634942,FALSE,0,0,25
"mp-3525","Sb2Te2Se",0.1308,5,3,159.641375475297,6.00884454382518,31.9282750950595,2,166,10.6475917027385,22.843579559551,-3.79851413,-4.06171413,-0.453608981135417,0,TRUE,5.40989414,FALSE,0,0,137
"mp-3526","ErInPt",0,9,3,190.650593754083,12.4680096603311,21.1833993060093,6,189,7.5937904,90,-5.45795728444444,-5.45795728444444,-0.994445331111111,0,TRUE,6.39654558,FALSE,1e-07,0,195
"mp-3527","Na3AgO2",1.1444,12,3,172.025207602348,4.03174456262758,14.3354339668624,7,72,5.42130979324122,115.857530278935,-3.82343659666667,-4.05243659666667,-1.27018504563697,0,TRUE,1.28504739,FALSE,0,0,77
"mp-3529","K3VS4",1.46,32,3,891.802361938267,2.20830926814855,27.8688238105708,7,62,9.15110591,90,-4.792438453125,-5.043938453125,-1.4238256558125,0,TRUE,0.49847201,FALSE,0,0,109
"mp-3530","Au(OF3)2",0,9,3,165.225001793464,3.44676337261945,18.3583335326072,5,2,5.509899,90.3824925605845,-3.34328711,-3.68706488777778,-0.949716751388889,0.013567734444444,FALSE,-4.46427055,TRUE,1.0002538,2,105
"mp-3531","Ca2P2O7",5.3874,88,3,1071.021403132,3.15169689841687,12.1706977628636,4,76,6.66605660394478,90,-7.27050698284091,-7.70768880102273,-3.21090464174242,0.0036955028409231,FALSE,1.86341718,FALSE,0.0002719,0,83
"mp-3532","CrAgSe2",0.4239,4,3,84.7831253182024,6.22403624449596,21.1957813295506,2,160,7.34131410964562,29.4745948117403,-5.2320251925,-5.4680251925,-0.598668585338541,0,TRUE,3.39825107,TRUE,3.0000002,1,105
"mp-3534","Ge2Sb2Te5",0,9,3,283.52111980702,6.01380777116506,31.5023466452245,2,164,4.26483212568385,90,-3.78123098333333,-4.01567542777778,-0.324499021481481,0.023153957777775,FALSE,5.97000098,FALSE,0.0002541,0,291
"mp-3535","RbCeS2",0.0339,4,3,120.485593273207,3.99285150999146,30.1213983183016,2,166,8.0311721200511,30.8052688757398,-5.574728075,-5.826228075,-2.0295973346875,0,TRUE,4.69076622,TRUE,1.0000001,1,111
"mp-3536","MgAl2O4",5.1095,14,3,131.897683410111,3.58213592110436,9.42126310072222,3,227,5.7136991035746,60.0000060213414,-7.10792504785714,-7.50049647642857,-3.37504125428571,0,TRUE,4.27532642,FALSE,0,0,49
"mp-3538","Hg3TeO6",1.1609,80,3,1243.71220587457,8.81588615105848,15.5464025734321,3,206,11.7340090440133,109.472132984786,-3.985684982,-4.397884982,-1.02443705641667,0,TRUE,1.16268513,FALSE,0,0,252
"mp-3539","NbGaNi2",0,4,3,52.5906087589497,8.84146080722005,13.1476521897374,3,225,4.20540343280414,60.0000163108591,-6.506100145,-6.506100145,-0.333681539375,0.0119097271144861,FALSE,6.43227344,FALSE,5.91e-05,0,100
"mp-3540","Li2SnO3",3.1283,24,3,237.672966216451,5.04688584349988,9.90304025901878,1,15,5.29531168283234,84.8368516660039,-5.65973689208333,-6.00323689208333,-2.22532293840278,0,TRUE,3.21578022,FALSE,0,0,69
"mp-3541","CeNiGe2",0,8,3,149.260489165281,7.65606349407383,18.6575611456601,7,63,8.60044833518679,90,-5.965923515,-5.965923515,-0.72610312875,0,TRUE,7.93368537,TRUE,1.9173188,2,118
"mp-3545","CeMgSi2",0,16,3,332.577086970927,4.40561479584368,20.786067935683,4,141,4.23811092552167,96.519984659297,-5.1195231175,-5.0840231175,-0.48802180125,0,TRUE,7.40584268,TRUE,3.9591711,4,84
"mp-3546","Tb(Al2Fe)4",0,13,3,189.388946804864,5.24457301854472,14.5683805234511,4,139,4.98878081045519,81.9075073038475,-5.69733168923077,-5.69733168923077,-0.429711875384615,0,TRUE,7.14673376,TRUE,6.9418207,5,156
"mp-3547","MgSiO3",5.5464,20,3,167.931616954007,3.97064855847468,8.39658084770034,7,62,4.830907,90,-6.981731074,-7.393931074,-3.02079823125,0.215346297999998,FALSE,6.10281326,FALSE,0,0,42
"mp-3551","TbAgTe2",0.8994,8,3,240.296896006135,7.21433107705302,30.0371120007669,4,113,4.69124901,90,-4.35922933125,-4.57022933125,-1.13184585875,0,TRUE,4.24594125,FALSE,0,0,164
"mp-3552","Li2Si2O5",5.1311,36,3,395.356498674157,2.5209034153116,10.982124963171,7,60,4.78727927,90,-7.00678145805556,-7.38844812472222,-3.01045641921296,0.006162738055556,FALSE,0.84338985,FALSE,0,0,49
"mp-3553","KTeAu",0,6,3,188.694656566714,6.40060225458441,31.4491094277857,6,194,4.71168112,90,-3.18721370666667,-3.32788037333333,-0.818684759888889,0,TRUE,2.91280866,FALSE,0,0,150
"mp-3555","LaSiIr",0,12,3,263.637786757985,9.04997534009248,21.9698155631654,3,198,6.41213345,90,-7.39932485166667,-7.39932485166667,-0.999405079999999,0,TRUE,8.42857045,FALSE,3e-07,0,148
"mp-3556","Tm2SO2",3.0974,5,3,77.5543484542598,8.60588950507271,15.510869690852,2,164,3.71391194,90,-7.846979714,-8.222379714,-3.62608008679167,0,TRUE,3.32242883,FALSE,0,0,93
"mp-3557","Eu(CuGe)2",0,5,3,88.3634950116923,7.97418102658276,17.6726990023385,4,139,4.16734743892078,110.755395250498,-5.975987112,-5.975987112,-0.435692942,0,TRUE,5.61658002,TRUE,6.7959215,1,124
"mp-3563","Ba5Nb4O15",2.5999,24,3,353.457600534255,6.09916822830891,14.7274000222606,2,164,5.85323812795067,90.0000075381661,-8.01799284791667,-8.44736784791667,-3.27235011755208,0,TRUE,1.9354784,FALSE,0,0,347
"mp-3564","BaSc2O4",3.6729,42,3,593.580909827815,4.88839298901139,14.1328788054242,1,15,5.73608850159349,89.9242187083873,-8.20790002738095,-8.60047145595238,-3.69037602809524,0,TRUE,2.28460583,FALSE,0,0,101
"mp-3566","Ce(SiRu)2",0,5,3,85.435820934633,7.74386658254776,17.0871641869266,4,139,4.1970617045103,111.658110516417,-7.952616614,-7.924216614,-0.857710555,0,TRUE,8.34323168,TRUE,0.8615449,1,116
"mp-3567","NaVSe2",0,4,3,83.0300484324132,4.6368525316907,20.7575121081033,2,166,7.11058829232024,30.6874673875856,-5.2057686825,-5.4417686825,-1.0922051028098,0.0015639804545468,FALSE,3.76679344,TRUE,1.9999999,1,68
"mp-3569","Nd(Sb3Os)4",0,17,3,410.132066691234,9.58058153143763,24.1254156877196,3,204,8.10678283145088,109.471220634491,-5.99780464235294,-5.99780464235294,-0.161002758088236,0.013820645588237,FALSE,7.27332424,FALSE,1.5e-06,0,390