"material_id","formula_pretty","band_gap","nsites","nelements","volume","density","density_atomic","crystal_symmetry","symmetry_number","sides_abc","angles_abc","uncorrected_energy_per_atom","energy_per_atom","formation_energy_per_atom","energy_above_hull","is_stable","efermi","is_magnetic","total_magnetization","num_magnetic_sites","atomic_number"
"mp-6396","Li3V2(PO4)3",1.7296,80,4,936.677172437585,2.89051168129735,11.7084646554698,1,14,8.740084,54.8557989900079,-7.121233305,-7.703433305,-2.72869566525,0,TRUE,2.32002374,TRUE,15.999665,8,68
"mp-6397","Na2Ca(SO4)2",5.4849,26,4,345.386032468735,2.67488121468531,13.2840781718744,1,15,6.61750148026353,72.9483064718817,-6.03998956269231,-6.46275879346154,-2.42452341725796,0,TRUE,0.80405347,FALSE,0.0001361,0,71
"mp-6402","Na2ZnGeO4",2.6874,16,4,222.009146963919,3.71027138520342,13.8755716852449,1,7,5.680003,52.9139342269502,-5.269206376875,-5.612706376875,-2.07338426476293,0,TRUE,0.07881336,FALSE,0.0002676,0,97
"mp-6404","BaCa2(PN2)6",4.0726,84,4,1004.95395812658,3.77665835025263,11.963737596745,3,205,10.016486,90,-7.44525334583333,-7.65153906011905,-1.05878054392857,0,TRUE,5.18587446,FALSE,0.0221135,0,98
"mp-6406","Na2MgSiO4",3.9456,16,4,198.89825780924,2.71111280661949,12.4311411130775,1,7,5.23032809653959,90,-6.146652633125,-6.490152633125,-2.80797719413793,0,TRUE,1.21093376,FALSE,2e-07,0,61
"mp-6407","Sb2Te(SeF5)2",1.7622,240,4,4858.61621244076,3.93187670811463,20.2442342185032,7,61,15.60949402,90,-4.371401281125,-4.74233461445833,-2.24180654754861,0.0146546993958418,FALSE,0.70991976,FALSE,2.16e-05,0,173
"mp-6408","ZnCu2GeS4",0.3694,8,4,147.001823583286,4.44387500383214,18.3752279479108,4,121,5.2685907196632,114.006790995144,-4.27593672375,-4.52743672375,-0.6990636896875,0,TRUE,4.37297574,FALSE,0,0,139
"mp-6412","Li2CuP2O7",0,24,4,307.618694367765,2.71382663906597,12.8174455986569,1,15,8.14557762895505,65.7203846662049,-6.49880108583333,-6.89955108583333,-2.45201121954861,0,TRUE,1.43515676,TRUE,1.9995262,2,95
"mp-6413","LiDy(PO3)4",5.6359,36,4,460.379473184164,3.50105753707047,12.7883186995601,1,15,8.96468069334419,57.3166825285325,-7.33565201194444,-7.79365201194444,-2.93091955259259,0.0029157762037055,FALSE,0.55644801,FALSE,0.0016467,0,100
"mp-6414","Ca3Cr2(SiO4)3",3.0111,80,4,898.499061934374,3.69976622050995,11.2312382741797,3,230,10.528823358015,109.471220634491,-7.6279826035,-8.2400826035,-3.19212694325,0,TRUE,3.46869365,TRUE,23.9993135,8,102
"mp-6416","Ba5Er8Zn4O21",3.3618,38,4,545.728657543983,7.9792072755165,14.3612804616838,4,87,10.1759994165698,94.5346831671581,-6.97104900973684,-7.35070690447369,-3.270284205625,0.0128623855920997,FALSE,2.49003011,FALSE,8.7e-06,0,798
"mp-6419","CaSi2(BO4)2",5.6644,52,4,564.05722669063,2.89524119849927,10.8472543594352,7,62,7.808447,90,-7.83281456846154,-8.25558379923077,-3.19492770910256,0,TRUE,2.29934372,FALSE,0.0001802,0,63
"mp-6424","K2Zn(CN)4",6.0508,22,4,511.835955754958,1.60705531060763,23.2652707161344,3,227,8.97873725570316,60,-6.84295764363636,-6.97423037090909,-0.270486446,0.101554604999998,FALSE,-3.70531975,FALSE,0.0009878,0,76
"mp-6425","Li3In2(PO4)3",3.7684,40,4,485.689279678459,3.66080933512781,12.1422319919615,2,148,9.17069603828456,55.2909367705671,-6.517390074,-6.929590074,-2.58807466825,0,TRUE,1.4845883,FALSE,3e-07,0,94
"mp-6426","Na2MgSiO4",3.6357,32,4,400.351091015251,2.69381363539431,12.5109715942266,7,33,5.25000182,90,-6.144410773125,-6.487910773125,-2.80573533413793,0.0022418599999998,FALSE,1.13972801,FALSE,6.2e-06,0,61
"mp-6428","Ba2YRuO6",0.0903,10,4,151.041477102345,6.16348441332877,15.1041477102345,3,225,5.9777407210084,60,-7.34983541,-7.76203541,-2.83613982991667,0,TRUE,3.19954739,TRUE,3.0002985,1,179
"mp-6430","Ba2YReO6",0,10,4,152.365604831224,7.03777670549328,15.2365604831224,3,225,5.99515817524258,60,-7.862456144,-8.274656144,-3.03174809941667,0,TRUE,4.66673993,TRUE,2.0007899,1,210
"mp-6433","KNd(PO3)4",5.3535,36,4,488.830739204465,3.39171732223502,13.5786316445685,1,4,7.26415796853736,90,-7.28625430472222,-7.74425430472222,-2.91691980799074,0,TRUE,0.65319672,FALSE,4e-07,0,110
"mp-6434","RbAlSiO4",4.3806,28,4,447.790529351532,3.03386590309632,15.9925189054118,7,33,5.379884,90,-7.07025753,-7.46282895857143,-3.18594570464286,0,TRUE,0.73608165,FALSE,0.0006901,0,88
"mp-6440","CaTiSiO5",2.902,16,4,190.326319092811,3.42056026123427,11.8953949433007,1,15,5.50872170823413,75.7207819119781,-8.054985853125,-8.484360853125,-3.47687916776042,0.0001176662500004,FALSE,5.39042349,FALSE,0.0002162,0,88
"mp-6441","K2PO3F",4.4668,28,4,481.404762043949,2.43065421053942,17.1930272158553,7,62,6.0613,90,-5.89660208607143,-6.2570306575,-2.77336701436905,0,TRUE,-0.28666737,FALSE,0.001454,0,59
"mp-6442","LiAl(Si2O5)2",5.3223,32,4,444.252880251458,2.28948101602524,13.8829025078581,1,13,5.227949,66.8703475969876,-7.6165956515625,-8.0459706515625,-3.24455453098958,0,TRUE,0.29708865,FALSE,0.0008176,0,62
"mp-6443","Ba3CaRu2O9",0,30,4,461.104469784201,5.74894299389638,15.3701489928067,6,194,5.97431339881814,90,-6.788240479,-7.200440479,-2.47833860025,0,TRUE,3.37780867,TRUE,12.0024827,16,240
"mp-6446","Ba3La2(BO3)4",4.0127,84,4,1215.32717984097,5.05558136434923,14.4681807123925,7,62,7.946994,90,-7.76363470619048,-8.15620613476191,-3.31302658007936,0.0148968540476186,FALSE,2.66538398,FALSE,0.0019031,0,190
"mp-6449","CdCu2SiS4",0.9803,16,4,312.706777010291,4.20407837009159,19.5441735631432,7,31,6.284403,90,-4.395983654375,-4.647483654375,-0.7609310796875,0,TRUE,4.37725876,FALSE,0.003122,0,139
"mp-6450","K2LiAlP2",1.8853,12,4,281.393554268228,2.05437892272728,23.4494628556857,7,72,6.124202,110.920892483132,-3.75792845833333,-3.75792845833333,-0.640944857666666,0,TRUE,2.54664006,FALSE,0,0,50
"mp-6452","BaSm2ZnO5",3.4403,36,4,541.639428011011,7.15491856700856,15.0455396669725,7,62,5.859585,90,-6.95625949888889,-7.33792616555555,-3.18800012375,0.0095354264351819,FALSE,2.14521897,FALSE,0.0024209,0,180
"mp-6453","K3Nd(Si2O5)3",4.1358,100,4,1755.45125076057,2.53525488716993,17.5545125076057,7,55,7.389902,90,-7.3530630133,-7.7652630133,-3.17119968841,0,TRUE,0.10307523,FALSE,0.1307641,0,144
"mp-6455","NaNd(SO4)2",5.5386,24,4,317.328772904496,3.76093400470816,13.222032204354,5,2,6.380132,99.2915340015089,-6.55915193458333,-7.01715193458333,-2.52239508877514,0,TRUE,1.29042897,FALSE,0.0007417,0,111
"mp-6456","LiNbGeO5",3.2475,32,4,410.781810022815,4.08255834573585,12.836931563213,7,62,6.791051,90,-7.3568943378125,-7.7862693378125,-2.61543192307292,0,TRUE,0.15740383,FALSE,0.0002953,0,108
"mp-6457","La2MgTiO6",3.0794,20,4,250.434168249936,5.91425780389033,12.5217084124968,1,14,5.65929,54.8891131870389,-8.179496467,-8.591696467,-3.68690461258333,0.0080831227499995,FALSE,5.64593678,FALSE,0.0005126,0,131
"mp-6459","CaMg(CO3)2",4.9779,10,4,110.936403571285,2.76018261323511,11.0936403571285,2,148,6.08540960492554,47.1962598947248,-7.335162902,-7.747362902,-2.57302858375,0,TRUE,1.59054842,FALSE,0,0,54
"mp-6462","VAg(PS3)2",0,20,4,461.733208559104,2.97161691207022,23.0866604279552,1,13,10.820419,75.3739769842148,-5.1351020945,-5.4369020945,-0.680725465708333,0.0048144019401039,FALSE,3.04143609,TRUE,3.9964324,2,117
"mp-6465","NaTi(SiO3)2",0,20,4,223.910123309267,3.30793749216897,11.1955061654634,1,15,6.64728943548707,77.9893374104709,-7.667036468,-8.079236468,-3.10435790423851,0.0116053950312426,FALSE,6.33081652,TRUE,2.0028769,2,63
"mp-6467","Na2CuP2O7",0.4979,24,4,299.211486491476,3.14634391857784,12.4671452704782,1,15,5.71329069812775,112.864781707862,-6.33645294083333,-6.73720294083333,-2.38739600341834,0,TRUE,1.5729482,TRUE,1.9999985,2,103
"mp-6468","BaNd2ZnO5",3.056,18,4,272.43568366812,6.96331795625968,15.13531575934,4,140,7.58512762916722,126.549701641477,-6.91959400388889,-7.30126067055556,-3.14032100708333,0.0125450287962936,FALSE,2.57094286,FALSE,0.0011211,0,178
"mp-6473","Ca5P3O12F",5.5148,42,4,540.948055835306,3.09609758521872,12.8797156151263,6,176,9.5008876825924,90,-7.17581745071429,-7.59038887928571,-3.4218340972619,0,TRUE,1.90364645,FALSE,0.0004147,0,119
"mp-6474","Ba3MgNb2O9",2.6589,15,4,214.132211828958,5.94085281274258,14.2754807885972,2,164,5.86239835065795,90,-7.66195784,-8.07415784,-3.26882361658333,0,TRUE,2.33586958,FALSE,0.0012429,0,229
"mp-6475","NaZr2(PO4)3",3.8533,36,4,531.43041438109,3.06436511738047,14.7619559550303,2,167,9.24747401528115,57.8382333281451,-7.93456788277778,-8.39256788277778,-3.16934018230843,0,TRUE,0.26562638,FALSE,0.0029483,0,90
"mp-6476","Ag3SeNO3",0.5603,16,4,255.261522037412,6.04427802313085,15.9538451273382,2,161,6.3634267202435,85.3502817763279,-4.4185929275,-4.7213429275,-0.325075359199218,0.260650529895843,FALSE,1.58917171,FALSE,0.0008449,0,151
"mp-6478","LiTaGeO5",3.6414,16,4,199.366440401017,5.67253471337455,12.4604025250636,1,15,5.53969500101415,109.695461878961,-7.719071768125,-8.148446768125,-2.75805027963542,0.0029324765624991,FALSE,0.31476568,FALSE,1e-07,0,140
"mp-6479","KDy(PO3)4",5.6924,36,4,496.826015103006,3.45918264767271,13.8007226417502,1,15,7.46993889450402,78.8639369951354,-7.28217606888889,-7.74017606888889,-2.92180604951852,0.0084556443055552,FALSE,0.87149077,FALSE,0.0021171,0,116
"mp-6480","Mn3Al2(SiO4)3",3.5477,80,4,809.678737101211,4.0609235482892,10.1209842137651,3,230,10.1697796179109,109.471220634491,-7.82466764675,-8.48706764675,-2.95639683868965,0.0095273689000006,FALSE,4.69693765,TRUE,60.0006094,12,101
"mp-6481","Na2ZnSi3O8",3.9475,28,4,373.110113322904,2.88074346131444,13.3253611901037,1,4,8.749697,76.4246215327765,-6.71121029321429,-7.10378172178571,-2.83562043772167,0,TRUE,0.99040924,FALSE,0.0008195,0,125
"mp-6485","La3SiAgSe7",1.6531,24,4,632.166410177598,5.80715277476575,26.3402670907332,6,173,10.9161511828424,90,-5.40624029375,-5.68157362708333,-1.72013398608941,0,TRUE,4.69568614,FALSE,0.0013858,0,379
"mp-6486","SrBPO5",5.3874,24,4,287.823552923415,3.62430179411062,11.9926480384756,2,152,6.94216949996541,90,-7.50779887666667,-7.93717387666667,-3.12271996578125,0,TRUE,2.20907029,FALSE,1.83e-05,0,90
"mp-6488","KTiAsO5",3.0123,64,4,974.499578729268,3.29734501111081,15.2265559176448,7,33,6.680827,90,-6.9380082296875,-7.3673832296875,-2.56757661407292,0,TRUE,0.19856473,FALSE,0,0,106
"mp-6491","Na2ZnP2O7",4.2535,48,4,639.478812794921,2.96369290269868,13.3224752665609,4,136,7.833778,90,-6.263195615625,-6.663945615625,-2.55076059987668,0.0049036925000001,FALSE,0.73077313,FALSE,0.001738,0,104
"mp-6492","Ba2YSbO6",3.5377,10,4,155.181392319265,6.22045161953723,15.5181392319265,3,225,6.03186408825398,60,-7.080126729,-7.492326729,-3.08097127891667,0,TRUE,3.07326335,FALSE,0,0,186
"mp-6493","CaMgSiO4",4.4683,28,4,351.445432509666,2.95713698474538,12.5516225896309,7,62,4.868883,90,-7.09024363607143,-7.48281506464286,-3.36596466392857,0,TRUE,1.9457936,FALSE,0.001649,0,70
"mp-6494","K2Ca(CO3)2",4.3534,11,4,158.913742697038,2.4899913170395,14.4467038815489,2,166,6.94497894638738,46.143232677789,-6.78021405,-7.15494132272727,-2.39459032031818,0,TRUE,0.83264609,FALSE,0,0,61
"mp-6495","BaEr2ZnO5",3.0633,36,4,501.921734042727,8.16836036281835,13.9422703900757,7,62,5.724268,90,-7.01847549361111,-7.40014216027778,-3.28374219069444,0.0222053760185154,FALSE,2.7228434,FALSE,0.0022249,0,186
"mp-6496","Ba2Na(CuO2)3",0,24,4,357.997367158005,5.42024503449912,14.9165569649169,7,69,9.30711551478008,72.6292294788242,-5.37558765708333,-5.71908765708333,-1.79090203617098,0,TRUE,3.15711575,TRUE,4.001172,4,104
"mp-6498","CoCu2GeS4",0,8,4,146.785795498901,4.37715652230215,18.3482244373626,4,121,6.46518400211146,131.882713512878,-4.86379241375,-5.11529241375,-0.5558476065625,0.0552766027187461,FALSE,4.95419709,TRUE,2.9918482,3,136
"mp-6499","BaLiBO3",4.1341,24,4,316.173492669227,4.26623524051753,13.1738955278845,1,14,7.195157,61.6238318381101,-6.84055462791667,-7.18405462791667,-2.95949534270833,0,TRUE,1.34066471,FALSE,0.0012715,0,80
"mp-6500","KRb2ScF6",6.5991,20,4,359.611393078373,3.40760109664917,17.9805696539187,1,14,6.36910267,90.1165719593096,-5.3824451615,-5.6596451615,-3.5723641613,0,TRUE,-2.78547201,FALSE,0.0028375,0,122
"mp-6501","BaHo2ZnO5",3.0589,36,4,507.145291043136,8.0232287601714,14.0873691956427,7,62,5.741873,90,-7.01192741083333,-7.3935940775,-3.27392965013889,0.0190032419907399,FALSE,2.62488101,FALSE,0.0025385,0,185
"mp-6504","BaMg(CO3)2",4.0848,10,4,126.779132077151,3.68901796642261,12.6779132077151,2,166,6.36716362470983,47.1299784063796,-7.314974939,-7.727174939,-2.56150311475,0.0051476565000001,FALSE,1.85553418,FALSE,0.0013049,0,90
"mp-6507","Na2Zn2Si2O7",3.323,26,4,334.969407891683,3.42017358760081,12.8834387650647,7,40,5.35358265738533,90,-6.10557676153846,-6.47549983846154,-2.5799617734118,0,TRUE,0.94261041,FALSE,0.0025007,0,103
"mp-6509","Sr3GaO4F",3.6718,18,4,269.737081856294,5.11672451798777,14.9853934364608,4,140,7.51718736926997,125.790588881179,-6.06826039222222,-6.42492705888889,-3.11439259277778,0,TRUE,1.93804166,FALSE,0.0007642,0,140
"mp-6511","KCSN",4.1109,16,4,356.618852682258,1.81002600009276,22.2886782926411,7,57,6.703341,90,-6.1312183125,-6.3472183125,-0.64421600465625,0.0043325926388906,FALSE,-0.15005927,FALSE,0.0003423,0,48
"mp-6514","NaLaTiO4",2.4215,14,4,189.580011976397,4.7957472230477,13.5414294268855,4,129,3.788244,90,-7.83169541714286,-8.22426684571429,-3.37558409426929,0.0090452002976242,FALSE,3.83688326,FALSE,0.0045363,0,114
"mp-6520","Ba3MgRu2O9",0,30,4,419.45130482226,6.19495020220837,13.981710160742,6,194,5.85598184748911,90,-6.714981655,-7.127181655,-2.43210109825,0,TRUE,3.59743562,TRUE,8.0054798,4,232
"mp-6521","LiLaTiO4",2.2637,14,4,176.011873046531,4.86261855206957,12.5722766461808,4,129,3.775938,90,-7.99235001214286,-8.38492144071428,-3.45246760738095,0.0287709680357153,FALSE,4.02340963,FALSE,0.0001943,0,106
"mp-6524","CaMg3(CO3)4",5.1119,20,4,210.914911094417,2.77940416296447,10.5457455547209,2,155,6.14443458400136,102.956249805194,-7.2493769315,-7.6615769315,-2.50750860475,0.0036534245000012,FALSE,1.89509295,FALSE,8.19e-05,0,66
"mp-6525","NaSn2(PO4)3",3.3552,36,4,494.586537562802,3.66177199283909,13.7385149323001,2,148,9.08191016952007,57.1245314958514,-6.79245059083333,-7.25045059083333,-2.53145942091954,0,TRUE,1.50671545,FALSE,0.0008583,0,100
"mp-6526","NaGeSbO5",1.9847,16,4,196.640502326369,5.02259038638735,12.2900313953981,1,15,5.57344315769383,104.57318687724,-6.00328057,-6.43265557,-2.08165582691272,0,TRUE,2.64144732,FALSE,6e-07,0,126
"mp-6527","Na3Li3In2F12",6.3204,80,4,1072.33437552182,3.39071205211841,13.4041796940227,3,230,11.1682220379847,109.471220634491,-4.6478523635,-4.9250523635,-3.01827938598276,0,TRUE,-2.07235655,FALSE,0.0001856,0,77
"mp-6528","Cs2NaAlF6",6.697,20,4,345.631429677332,4.12956798516814,17.2815714838666,2,166,10.7584251504441,33.9217767152058,-4.9691734225,-5.2463734225,-3.41359545524138,0,TRUE,-1.33450349,FALSE,0.0015433,0,124
"mp-6531","K2Mn2(SO4)3",4.431,76,4,1093.80915676318,2.89209189604283,14.392225746884,3,198,10.303399,90,-6.39961288736842,-7.00908657157895,-2.15043169717037,0,TRUE,0.87078366,TRUE,40.0040793,8,84
"mp-6532","CaAl2(SiO4)2",4.7227,104,4,1386.81127295644,2.66495700698001,13.3347237784273,5,2,8.266237,85.5839043766405,-7.61299233336538,-8.03576156413462,-3.42646177259615,0.0007419500961542,FALSE,1.62914879,FALSE,1.15e-05,0,71
"mp-6533","NaLu(Pd3O4)2",0,16,4,196.81602593777,8.13726105889598,12.3010016211106,3,200,5.816836,90,-5.88557007,-6.22907007,-1.44805279728448,0,TRUE,3.61211541,FALSE,0.0006693,0,198
"mp-6535","NdAl3(BO3)4",4.8732,40,4,378.203311338438,4.04306914398827,9.45508278346096,1,15,5.97315828813485,81.7322155255805,-7.92837847925,-8.34057847925,-3.23644315220833,0.0096592455103596,FALSE,3.44646379,FALSE,5.04e-05,0,107
"mp-6537","CaCu(GeO3)2",0,40,4,489.847430525112,4.67672628330021,12.2461857631278,1,14,9.342913,76.2965668627372,-6.24786411725,-6.66006411725,-2.1569646645,0.0428966369500027,FALSE,4.03850647,TRUE,4.0021144,4,97
"mp-6539","RbTiPO5",2.7536,64,4,924.842685345289,3.509171333174,14.4506669585201,7,33,6.594719,90,-7.488077675625,-7.917452675625,-3.03960615661458,0,TRUE,0.91604502,FALSE,1.51e-05,0,106
"mp-6543","VAg(PSe3)2",0,10,4,264.268858179953,4.36401394708894,26.4268858179953,1,5,6.439866721867,82.4722080954456,-4.631756224,-4.914956224,-0.543102628739583,0.0090355761499969,FALSE,3.00578379,TRUE,2.0019725,1,153
"mp-6544","LuNi2B2C",0,6,4,63.3482389490392,8.54504130524706,10.5580398248399,4,139,5.81490896164575,145.321554939018,-6.96370636333333,-6.96370636333333,-0.518927544305556,0,TRUE,6.50267042,FALSE,0.0023161,0,110
"mp-6548","K2La2Ti3O10",2.0398,17,4,229.902486017951,4.76417547748078,13.5236756481148,4,139,15.2811572506292,165.294879362285,-8.04533727411765,-8.44945492117647,-3.43497402314706,0.0008599386765038,FALSE,3.77715865,FALSE,0.014995,0,120
"mp-6551","Mg3Fe2(SiO4)3",2.4401,80,4,819.548440804142,3.73506448702271,10.2443555100518,3,230,10.2109348771495,109.471220634491,-7.018598953875,-7.656398953875,-2.787543894125,0.066528185124997,FALSE,3.95802274,TRUE,40.0027514,8,88
"mp-6553","LiSc(SiO3)2",4.8887,20,4,228.425191538492,2.9668948498419,11.4212595769246,1,15,6.73017277189412,74.8675963842049,-7.8065617295,-8.2187617295,-3.34154569958333,0.0011689644999997,FALSE,1.82738136,FALSE,0.0001028,0,54
"mp-6557","Cs2PO3F",4.402,28,4,616.933704988694,3.91661537690111,22.0333466067391,7,62,6.472286,90,-5.81685665392857,-6.17728522535714,-2.75504917506363,0,TRUE,0.35773136,FALSE,0.0022963,0,95
"mp-6560","KSO2F",3.9815,10,4,185.902620581724,2.18234995638417,18.5902620581724,1,11,5.815997,71.6541988538481,-5.229107142,-5.596307142,-2.185966101225,0.0188298222625009,FALSE,-0.86344917,FALSE,0.0001426,0,52
"mp-6562","Ba2CuHgO4",0,8,4,152.073353440425,6.58203647132814,19.0091691800532,4,123,3.933714,90,-5.1143516225,-5.4578516225,-1.9544026525,0.023434038125,FALSE,2.23751735,FALSE,0.0003984,0,189
"mp-6563","TbAl9(Fe2Si3)2",0,80,4,1144.16538448102,4.60734259907161,14.3020673060127,4,137,8.665417,90,-5.634711501375,-5.613411501375,-0.374584421875,0,TRUE,8.32270648,FALSE,0.0264837,0,223
"mp-6564","Sr2MgSi2O7",4.4959,24,4,342.674561710177,3.56373000728447,14.278106737924,4,113,8.09718,90,-7.20657400416667,-7.60732400416667,-3.40259700454861,0,TRUE,1.42827335,FALSE,9.7e-06,0,112
"mp-6565","Li3Sc2(PO4)3",4.7407,80,4,991.454281174934,2.65061328267859,12.3931785146867,1,14,8.912454,54.1774688582119,-7.409691846875,-7.821891846875,-3.122297903625,0,TRUE,0.78336355,FALSE,0.0015446,0,66
"mp-6566","NaZnAsO4",3.1581,42,4,566.609768669297,3.99714642494909,13.4907087778404,6,173,8.95508468670341,90,-5.40206622119048,-5.7946376497619,-1.93347448498358,0.0030616804761907,FALSE,-0.203208,FALSE,0.0007739,0,98
"mp-6567","LiNd(PO3)4",5.677,36,4,496.56258090739,3.12383340910111,13.7934050252053,1,15,9.2063301527115,56.3891961479394,-7.26928429194444,-7.72728429194444,-2.85558735523148,0.0715339916666657,FALSE,0.08417324,FALSE,0.0019616,0,94
"mp-6568","BaCa(CO3)2",4.703,20,4,279.257899752867,3.5371044409818,13.9628949876434,1,11,5.301284,74.0487822187544,-7.4743253895,-7.8865253895,-2.68032158225,0.0060670840000014,FALSE,1.34352016,FALSE,0.0015724,0,98
"mp-6569","K3HgN5O11",2.3947,80,4,1324.93046540733,2.82700895923272,16.5616308175917,7,62,9.662862,90,-5.715879166,-6.093729166,-1.1071827832625,0.0932982461250038,FALSE,-0.68838844,FALSE,0.0020265,0,146
"mp-6571","BaCuAs2O7",0,44,4,677.447789673134,4.53674136544365,15.3965406743894,1,14,8.525002,67.2563693295873,-6.07791407045455,-6.51509588863636,-1.97298321602273,0,TRUE,2.10082469,TRUE,4.0109357,4,166
"mp-6573","CoAg3(CN)6",3.4249,16,4,330.56306991204,2.70579653061268,20.6601918695025,2,162,7.48897696390215,90,-7.192702428125,-7.328077428125,0.23423184125,0.24346718375,FALSE,-2.24761901,FALSE,0.0007427,0,162
"mp-6574","Er2C(NO)2",4.0097,7,4,96.2809533399508,7.01153263654492,13.7544219057073,2,164,3.69112386791516,90,-8.63221678428571,-8.93164535571428,-2.51300672928571,0,TRUE,1.81514646,FALSE,0,0,89
"mp-6575","Ba4Na(BO3)3",3.9839,136,4,2062.79645160652,4.82175630998656,15.167620967695,3,230,13.8896964770725,109.471220634491,-7.01595160492647,-7.37965748727941,-3.05278697156187,0,TRUE,1.72217156,FALSE,0.0034421,0,200