"material_id","formula_pretty","band_gap","nsites","nelements","volume","density","density_atomic","crystal_symmetry","symmetry_number","sides_abc","angles_abc","uncorrected_energy_per_atom","energy_per_atom","formation_energy_per_atom","energy_above_hull","is_stable","efermi","is_magnetic","total_magnetization","num_magnetic_sites","atomic_number"
"mp-4779","Li2B4O7",5.668,52,3,466.64867875942,2.40723583883536,8.97401305306577,4,110,8.48278628257738,112.303789246112,-7.44824885519231,-7.81817193211538,-2.80569240939103,0,TRUE,0.66836281,FALSE,0,0,66
"mp-4782","CaSnF6",5.418,8,3,142.171865262045,3.18599760066535,17.7714831577556,2,148,5.92037582115333,58.6396045725661,-5.24090211875,-5.58740211875,-3.40189642625,0.0014265875000001,FALSE,-3.16465386,FALSE,0,0,115
"mp-4783","BaPrO3",0,5,3,96.732161628463,5.60023040024631,19.3464323256926,3,221,4.590468,90,-6.790608638,-7.202808638,-2.89481927225,0.190828110999998,FALSE,1.49232037,TRUE,0.9999795,3,131
"mp-4784","CaPtO3",1.2953,10,3,114.942368310337,8.18146661006258,11.4942368310337,7,63,3.14957509072181,89.9999990843711,-6.163424937,-6.575624937,-1.99226507025,0.0105472816666631,FALSE,4.37077874,FALSE,0,0,114
"mp-4785","CeAl3Pd2",0,6,3,107.998998773072,6.67144077022077,17.9998331288454,6,191,5.43264891,90,-5.4089574,-5.4089574,-0.8206940225,0,TRUE,7.04466012,TRUE,0.9098023,1,130
"mp-4788","K(OsO3)2",0,18,3,260.373395830908,6.57593082877954,14.4651886572727,3,227,7.16754676216705,60,-7.10647504222222,-7.56447504222222,-1.64833436727778,0.0107859711111109,FALSE,2.29665891,FALSE,1.4e-06,0,111
"mp-4789","PrRhO3",0.6013,20,3,247.071731361478,7.84491441545523,12.3535865680739,7,62,5.40540234,90,-7.459802894,-7.872002894,-2.47494694225,0,TRUE,4.86477242,FALSE,0,0,120
"mp-4790","ThGeO4",3.8957,12,3,172.741037796848,7.08807060722324,14.3950864830707,4,141,6.08987098260642,106.894873738418,-8.10368113666667,-8.56168113666667,-3.25774097833333,0,TRUE,2.10421669,FALSE,0,0,146
"mp-4793","U(SiPd)2",0,5,3,86.064848910017,9.7828508333366,17.2129697820034,4,139,4.0875667423555,110.244028318523,-7.131432842,-7.103032842,-0.602670903999999,0,TRUE,8.72655733,TRUE,2.5694261,1,152
"mp-4794","Sm2As4O9",3.3407,30,3,460.177855873448,5.37230084385479,15.3392618624483,5,2,6.82574827095053,96.1483256640556,-6.89634784066667,-7.30854784066667,-2.46895822125,0,TRUE,1.68417154,FALSE,0,0,225
"mp-4796","GdScGe",0,6,3,141.680519410716,6.44255647945892,23.6134199017859,4,139,4.2530846092509,104.686608997993,-9.09198615166667,-9.09198615166667,-0.748113085,0,TRUE,4.33390154,TRUE,16.1079784,4,117
"mp-4798","Sc(AlC)3",0.0223000000000004,14,3,162.057680115649,3.31851541287282,11.5755485796892,6,194,3.34516663,90,-6.81112931071429,-6.81112931071429,-0.346101728928571,0,TRUE,7.46180409,FALSE,1e-07,0,46
"mp-4800","Ca11(CN5)2",0.8584,46,3,767.172019018604,2.61880544518314,16.677652587361,4,136,14.570162,90,-6.21923657304348,-6.37619309478261,-0.989937489782609,0.0038877774999992,FALSE,3.24699784,FALSE,0.0027202,0,34
"mp-4802","La4Re6O19",0,29,3,373.479998508933,8.78933486411744,12.8786206382391,3,197,7.858161243423,109.477659346609,-8.73424077758621,-9.18434422586207,-2.68785191400862,0,TRUE,6.58200759,TRUE,0.0101612,6,546
"mp-4804","Li4TeO5",2.7111,20,3,180.3598335426,4.33384892387065,9.01799167712998,5,2,5.08465933128523,107.71844402163,-5.312625174,-5.656125174,-2.104881082375,0,TRUE,2.43562062,FALSE,0,0,93
"mp-4805","Gd2SO2",2.0194,5,3,85.8062061159941,7.32604327303285,17.1612412231988,2,164,3.85490617,90,-11.580947522,-11.956347522,-3.519933168125,0,TRUE,2.98780161,TRUE,13.9999998,2,88
"mp-4807","AgAsF7",0,36,3,525.503778674609,3.99131469779222,14.5973271854058,7,62,6.98012698,90,-4.07071761861111,-4.43005095194444,-2.11093682074074,0,TRUE,-2.74109449,FALSE,0.9554531,0,134
"mp-4808","NdAgSn",0,6,3,152.33274443731,8.08442637935708,25.3887907395517,6,186,4.78427871,90,-4.49215568166667,-4.49215568166667,-0.622063918055556,0,TRUE,5.39248566,FALSE,5e-07,0,157
"mp-4809","Ga2HgS4",1.5714,7,3,160.37532561024,4.84877458408017,22.9107608014629,4,82,5.58218930245464,115.488026628285,-3.81282699428571,-4.10025556571429,-0.828016726071429,0,TRUE,1.55127097,FALSE,0,0,159
"mp-4810","Pr(CoGe)2",0,5,3,82.7047857916663,8.11255977529134,16.5409571583333,4,139,4.00305982016496,109.878475486778,-6.230837548,-6.230837548,-0.582118137,0,TRUE,5.85434936,FALSE,0.0002075,0,118
"mp-4812","Zn4B6O13",3.4134,23,3,208.462912960212,4.25758465795071,9.06360491131358,3,217,6.46969138031731,109.471220634491,-6.88149305086956,-7.26979739869565,-2.51230703733696,0,TRUE,1.66805371,FALSE,0,0,115
"mp-4813","NbAlNi2",0,4,3,52.9572213168024,7.44004179136965,13.2393053292006,3,225,4.21515335241632,60.0000056717247,-6.782863845,-6.782863845,-0.4310752875,0.0071984649166658,FALSE,7.38486478,FALSE,5.66e-05,0,82
"mp-4815","Pr(SiRh)2",0,5,3,85.8533614543904,7.79251961740851,17.1706722908781,4,139,4.10648296921852,110.506974480857,-7.145800734,-7.145800734,-1.073769223,0,TRUE,6.91960513,FALSE,0,0,118
"mp-4816","LaGaS3",2.222,60,3,1399.39197510397,4.34049606706342,23.3231995850661,1,14,10.57888155,81.2740084034263,-5.52257183266667,-5.82437183266667,-1.74968128704167,0,TRUE,4.3571099,FALSE,0,0,120
"mp-4817","CeAl5Ni2",0,8,3,132.60236891583,4.91403705000082,16.5752961144788,7,71,3.97626101806272,68.3190539546016,-5.111455155,-5.111455155,-0.583799946875,0,TRUE,8.12133183,TRUE,0.7901282,1,138
"mp-4818","Rb2Sb4S7",1.2221,26,3,755.803640679296,3.87748988228291,29.0693707953575,1,14,7.16598781052506,90,-4.190380895,-4.46122704884615,-0.812594573990385,0.0103811542307692,FALSE,2.66302553,FALSE,1e-07,0,286
"mp-4819","MgGeO3",2.5261,20,3,217.505252047277,4.4262626998212,10.8752626023638,1,15,6.55372003882947,82.1312120489666,-6.36128626,-6.77348626,-2.56081145225,0,TRUE,2.46516353,FALSE,0,0,60
"mp-4820","ZrSiO4",4.1835,12,3,131.364623883716,4.63425527719849,10.9470519903097,4,141,5.5585207048904,106.908003340207,-8.72823688666667,-9.18623688666667,-3.55960796916667,0,TRUE,3.01747659,FALSE,0,0,78
"mp-4822","Y(SiPd)2",0,5,3,84.9728530124419,6.99440928424974,16.9945706024884,4,139,4.13834624290081,111.05188457015,-6.487604564,-6.487604564,-0.952230405333333,0,TRUE,6.2530202,FALSE,0,0,99
"mp-4823","Na2PdC2",0.8829,5,3,93.1469048391066,3.14507348527726,18.6293809678213,2,164,4.51209843962485,90,-5.223018132,-5.223018132,0.0334345443793097,0.0452656349999998,FALSE,0.89207466,FALSE,0,0,63
"mp-4824","NaZnP",0.9102,6,3,110.972098354092,3.57247911158492,18.495349725682,4,129,4.02878405,90,-3.07114733666667,-3.07114733666667,-0.405956866628352,0,TRUE,3.23608079,FALSE,0,0,56
"mp-4825","Li7VN4",2.84,96,3,859.964309839906,2.40294300320226,8.95796156083236,3,218,9.50955386,90,-5.4306728115625,-5.55100614489583,-0.901643991840277,0.0033628336458342,FALSE,1.38351777,FALSE,3.2e-06,0,62
"mp-4826","CaCuO2",0,4,3,46.6073807478931,4.83200201572921,11.6518451869733,4,123,3.16472405,90,-5.783562855,-6.127062855,-2.127516861875,0.0156041966666675,FALSE,3.8653765,TRUE,0.1413354,1,57
"mp-4828","HfNi2Sn",0,4,3,61.6921086685347,11.1592486098276,15.4230271671337,3,225,4.43521697633475,60,-6.872656395,-6.872656395,-0.49089783375,0.0473078729107125,FALSE,8.50510691,FALSE,1.45e-05,0,150
"mp-4829","Na2ThF6",6.4738,9,3,115.890592297531,5.61688930055432,12.8767324775035,2,150,5.90668136,90,-5.92881525888889,-6.23681525888889,-3.84483940978927,0,TRUE,-0.80137825,FALSE,0,0,146
"mp-4835","LaCuSi",0,6,3,128.899975891012,5.93973183213428,21.4833293151686,6,194,4.23738297,90,-5.43637698833333,-5.41271032166667,-0.592533053333334,0,TRUE,7.70025365,FALSE,0,0,100
"mp-4836","Yb(MnSb)2",0,5,3,130.292076025679,6.70929284556696,26.0584152051358,2,164,4.45226423525154,90,-5.807265664,-5.884065664,-0.259737395172414,0.199556715827587,FALSE,4.11452937,TRUE,8.7085812,3,146
"mp-4840","GaCuSe2",0.0398,8,3,174.380325778413,5.54570256828875,21.7975407223016,4,122,5.6027357727502,114.240577288411,-4.0076439275,-4.2436439275,-0.713862515546875,0,TRUE,3.21228489,FALSE,0,0,94
"mp-4841","LaCuS2",1.2346,16,3,330.766077686,5.35325688128015,20.672879855375,1,14,6.59342345400687,90,-5.793602648125,-6.045102648125,-1.7180742709375,0,TRUE,6.79762452,FALSE,0,0,102
"mp-4842","Al2ZnS4",2.4934,14,3,250.64764281936,3.28112192645082,17.9034030585257,3,227,7.07716928620315,59.9999927915214,-4.62753851785714,-4.91496708928571,-1.30115355535714,0,TRUE,4.2853273,FALSE,0,0,91
"mp-4843","CeZrO4",1.7423,96,3,1203.89885337941,6.51775183616793,12.5406130560356,3,198,10.638082,90,-9.06245989458333,-9.52045989458333,-3.80920245625,0.062686167916663,FALSE,4.39398719,FALSE,0.0001229,0,122
"mp-4846","MnSbRh",0,3,3,56.9900149671706,8.14691152300644,18.9966716557235,3,216,4.31954420642757,60,-7.14960278,-7.14960278,-0.264494645977011,0.130227988189655,FALSE,6.63180118,TRUE,3.2416968,1,121
"mp-4847","Y4Al23Ni6",0,33,3,533.940113462044,4.13116053693117,16.1800034382438,1,12,8.14391421327126,67.8841322800736,-4.96344115757576,-4.96344115757576,-0.518139684141414,0,TRUE,7.47033282,FALSE,0,0,270
"mp-4851","Sr(GaO2)2",2.8011,56,3,808.381051264732,4.7831153677743,14.4353759154416,1,14,9.0116254,86.004644882621,-6.18084302839286,-6.57341445696429,-2.64020869363095,0,TRUE,0.50560362,FALSE,0,0,77
"mp-4852","Ni(RhSe2)2",0,7,3,128.021405356738,7.52752671006213,18.2887721938197,1,12,6.43002394765471,62.0717391152657,-5.26408401428571,-5.5337983,-0.606312824196428,0.0423986613095186,FALSE,5.59651277,FALSE,0.0001596,0,107
"mp-4853","CaSiO3",4.5834,20,3,187.865898114235,4.10699425130107,9.39329490571177,4,139,6.24919230113084,109.403491889112,-7.2470837915,-7.6592837915,-3.20508698275,0.243710332166668,FALSE,6.31928727,FALSE,0.000331,0,50
"mp-4854","NdScGe",0,6,3,149.209510352239,5.82794060467806,24.8682517253732,4,139,8.56477608629841,150.797753039244,-5.95747117666667,-5.95747117666667,-0.716256379166666,0,TRUE,4.41691742,TRUE,2.0262321,4,113
"mp-4855","Li2SeO4",3.8324,42,3,521.067972662389,2.99889799397048,12.4063803014855,2,148,8.61882476361504,107.803699410965,-5.33066851380952,-5.72323994238095,-1.85173822009673,0,TRUE,-0.94785075,FALSE,0,0,61
"mp-4856","HoGa5Co",0,7,3,116.935894119237,8.12943661231448,16.7051277313196,4,123,4.16579837,90,-4.30329949285714,-4.30329949285714,-0.470269953214285,0,TRUE,4.31575607,FALSE,0,0,218
"mp-4860","Gd2CuO4",0,7,3,89.3589089478367,8.2144094593746,12.7655584211195,4,139,3.88132894367891,107.273126502041,-10.1012921785714,-10.4938636071429,-3.05983417928572,0,TRUE,2.88853126,TRUE,13.7793811,3,117
"mp-4861","Sr(CuAs)2",0,5,3,94.7928019657969,6.38611939913541,18.9585603931594,4,139,4.18554238627709,109.835737857458,-4.354299972,-4.354299972,-0.513071251333334,0,TRUE,5.40708194,FALSE,0,0,100
"mp-4864","CaMgSn",0,12,3,323.25435035282,3.76215297940032,26.9378625294016,7,62,4.6968103,90,-3.091434965,-3.091434965,-0.552951036666667,0,TRUE,4.77509409,FALSE,0,0,82
"mp-4865","Er(NiGe)2",0,5,3,78.0746907652484,9.14391821013813,15.6149381530497,4,139,4.01422585533076,110.942560507756,-5.750473252,-5.750473252,-0.675663676,0,TRUE,6.47351763,FALSE,1.5e-06,0,128
"mp-4867","CaAl4O7",3.9994,24,3,298.172573123863,2.89590740739303,12.4238572134943,1,15,5.45018699495565,69.3271020228627,-7.36519139208333,-7.76594139208333,-3.4647143771875,0,TRUE,2.63380647,FALSE,0,0,107
"mp-4870","Cu(BO2)2",0,42,3,371.449274480524,4.001008857092,8.84403034477439,4,122,8.59859970350729,96.1437426750218,-7.22158127619048,-7.6141527047619,-2.29347483952381,0,TRUE,3.3877609,TRUE,6.0000005,6,42
"mp-4871","ErP5O14",5.1924,80,3,999.668262058524,3.62861421034272,12.4958532757316,1,15,9.01020878654681,89.1471769981599,-7.39662623725,-7.87752623725,-2.83313257220833,0,TRUE,0.80507007,FALSE,1.4e-06,0,128
"mp-4873","Ce2TeO2",0,5,3,106.601628413923,6.85126706749766,21.3203256827845,4,139,4.06828986978381,106.760168429936,-7.832525354,-8.191725354,-3.21115302883333,0,TRUE,8.02694341,TRUE,2,2,118
"mp-4875","GdTaO4",3.3217,12,3,151.819465219952,8.79809853080909,12.6516221016626,1,13,5.171424124821,90,-10.8574856883333,-11.3154856883333,-3.69537656916667,0,TRUE,1.96892269,TRUE,14.0000005,2,161
"mp-4876","Tl3SbSe3",1.0148,28,3,881.710216650088,7.32075034633612,31.489650594646,3,198,9.58904355,90,-3.46326839142857,-3.66555410571429,-0.564887661004464,0,TRUE,3.40611557,FALSE,0,0,281
"mp-4877","CsNa2Si17",0,40,3,816.858275955441,2.66845727442089,20.421456898886,3,227,10.4926995432711,60,-4.831342551,-4.770992551,0.017550422448275,0.0212410817487676,FALSE,6.31123974,FALSE,0.0259992,0,66
"mp-4878","ZrGeSe",0,6,3,115.732691428973,6.96810440212632,19.2887819048289,4,129,3.71896668,90,-6.588563885,-6.74589721833333,-1.19035056411458,0,TRUE,6.323009,FALSE,1e-07,0,106
"mp-4881","Er(SiNi)2",0,5,3,72.4568506892733,7.81071224556247,14.4913701378547,4,139,3.91346008227736,110.916528656312,-6.25088412,-6.22248412,-0.826758474,0,TRUE,7.12359441,FALSE,1.1e-06,0,110
"mp-4883","Ba(FeP)2",0,5,3,89.1041130325399,5.79511677805603,17.820822606508,4,139,3.79396953566783,106.330441297625,-6.74967259,-6.74967259,-0.812548115333332,0,TRUE,5.60175117,FALSE,0.0003816,0,97
"mp-4886","NdCuO2",2.4115,4,3,68.8272182503614,5.78514371460756,17.2068045625903,2,166,6.07029041200759,35.9145587535722,-6.9581713475,-7.3016713475,-2.61148846625,0,TRUE,2.25069583,FALSE,0,0,97
"mp-4887","BaCeN2",0.6481,8,3,148.712803081848,6.82150124039869,18.589100385231,6,194,3.6803613,90,-7.17977853,-7.36027853,-1.22901504375,0,TRUE,5.11252325,FALSE,0,0,121
"mp-4888","NbPO5",3.0819,14,3,178.741081552054,3.78811581689083,12.767220110861,4,129,6.513189,90,-8.16721866285714,-8.65793294857143,-2.90821136244048,0.022568086071427,FALSE,1.03783179,FALSE,0.000464,0,88
"mp-4889","Y(GeRh)2",0,5,3,87.062115606258,8.39207677780601,17.4124231212516,4,139,4.11099650551146,110.334543194063,-6.97536971,-6.97536971,-0.887141197333332,0,TRUE,6.43350525,FALSE,0,0,116
"mp-4891","HoAlO3",5.8359,20,3,200.976749462227,7.92887785958482,10.0488374731114,7,62,5.14522288,90,-7.9777782775,-8.3899782775,-3.75636811075,0.0156946146499983,FALSE,4.36554776,FALSE,0,0,96
"mp-4893","Hf2SnC",0,8,3,138.176777829483,11.7218837764123,17.2720972286853,6,194,3.32679204,90,-9.05869339375,-9.05869339375,-0.770539541874999,0,TRUE,7.72352404,FALSE,1.14e-05,0,128
"mp-4895","UTeAs",0,6,3,155.938248588663,9.38257726101895,25.9897080981105,4,139,9.47196781559201,154.618538251195,-7.05479593333333,-7.1954626,-0.830851163888889,0,TRUE,8.83546086,TRUE,4.9071935,2,177
"mp-4896","Sm(SiPt)2",0,5,3,88.8411478701919,11.152962610849,17.7682295740384,4,139,5.79544576363665,137.185274296684,-6.578464786,-6.550064786,-1.007767019,0.0710240729999931,FALSE,6.9962789,FALSE,0.0035265,0,154
"mp-4897","ScSnPd2",0,4,3,70.2423255221914,8.90065599386147,17.5605813805478,3,225,4.63131906051478,59.9999939157072,-6.0533324,-6.0533324,-0.877881255,0,TRUE,7.16109333,FALSE,4e-07,0,117
"mp-4899","GaAgTe2",0.1926,8,3,245.112566652983,5.86397266443009,30.6390708316228,4,122,6.34459900977397,114.79850349419,-3.3268374575,-3.5378374575,-0.501021504375,0,TRUE,3.07513582,FALSE,0,0,130
"mp-4900","BaCeO3",2.2108,10,3,172.444550932021,6.26761267387587,17.2444550932021,2,167,6.20931255113611,60.8279401287942,-7.71480298,-8.12700298,-3.58857693425,0.0027953380000003,FALSE,2.79510007,FALSE,0,0,130
"mp-4901","Y2MgCu2",0,10,3,215.400590413702,5.07578838446699,21.5400590413702,4,127,3.69752416,89.9999755278403,-4.784768599,-4.784768599,-0.238441475666667,0,TRUE,4.12657487,FALSE,0.2689862,0,80
"mp-4903","Tm(CuSi)2",0,5,3,75.9268804700849,7.70263736283686,15.185376094017,4,139,3.90795009572937,110.091942010159,-5.275616528,-5.247216528,-0.542239563333333,0,TRUE,7.39203849,FALSE,5e-07,0,112
"mp-4904","Pr(SiRu)2",0,5,3,87.4918041788452,7.57691729713582,17.498360835769,4,139,4.21148736943411,111.435322505068,-7.71177264,-7.68337264,-0.847303260999999,0,TRUE,6.71992915,FALSE,0,0,117
"mp-4906","Te2SO7",3.3025,20,3,290.684296080156,4.56156844454474,14.5342148040078,7,31,4.67322431,90,-5.667198104,-6.148098104,-1.64310984077083,0,TRUE,2.18749986,FALSE,0,0,116
"mp-4907","Na6Sn2S7",2.28,30,3,737.495951907972,2.70106958265589,24.5831983969324,1,15,7.13473263212773,79.8585648034948,-3.89947412266667,-4.134207456,-1.14024448674569,0,TRUE,1.36601229,FALSE,0,0,201
"mp-4908","Y(CoGe)2",0,5,3,77.648815595983,7.52872395434557,15.5297631191966,4,139,3.93077012306421,110.012639301737,-6.602054468,-6.602054468,-0.616221985333333,0,TRUE,6.08761211,TRUE,0.145524,2,98
"mp-4909","V2NiS4",0,7,3,103.069250682137,4.65341625054839,14.7241786688768,1,12,6.28183709382127,64.9349017890951,-6.58259901428571,-6.87002758571429,-1.08520640178571,0.0015741709523799,FALSE,7.23720666,FALSE,8.6e-06,0,99
"mp-4911","Th(CuGe)2",0,5,3,87.6936969238228,9.5513433644341,17.5387393847646,4,139,5.81198143081825,137.769958771144,-5.45477256,-5.45477256,-0.4831071,0,TRUE,8.08011446,FALSE,0,0,151
"mp-4913","LiGa2Rh",0,4,3,54.1907559359151,7.63894003896018,13.5476889839788,3,225,4.24763049746802,60.0000046692306,-4.3831979725,-4.3831979725,-0.550842277083333,0,TRUE,4.96848562,FALSE,8.2e-06,0,79
"mp-4917","LaAsO4",4.0025,24,3,333.543320927847,5.53257929934746,13.8976383719936,1,14,7.22861075,53.6604035669242,-7.27619051375,-7.73419051375,-2.83721045458333,0.0058088945833327,FALSE,3.54411559,FALSE,0,0,114
"mp-4920","Nd(GeRh)2",0,5,3,90.40565717134,9.09810097301001,18.081131434268,4,139,4.15794629772957,110.276319373086,-6.641207526,-6.641207526,-0.892643749499999,0,TRUE,6.26762508,FALSE,0,0,137
"mp-4922","MnAlNi2",0,4,3,47.9077227503505,6.90819803552746,11.9769306875876,3,225,4.07668234123153,59.9999999140926,-6.5213355325,-6.5213355325,-0.404369411982759,0,TRUE,7.57571564,TRUE,4.8484509,3,66
"mp-4924","Pr(CuGe)2",0,5,3,88.0877313414325,7.79072174756969,17.6175462682865,4,139,4.16285623325907,110.753613653391,-4.981711842,-4.981711842,-0.536636881,0,TRUE,6.42305858,FALSE,0,0,120
"mp-4929","KBF4",7.9399,24,3,317.630747677945,2.63282703997047,13.234614486581,7,62,5.3624035,90,-5.57040892125,-5.87840892125,-3.30579115661111,0,TRUE,-3.59933223,FALSE,0,0,51
"mp-4930","TiAl2O5",2.9434,16,3,162.226322154963,3.72234247865005,10.1391451346852,7,63,5.00507329702292,90.0000098166518,-8.02791808875,-8.45729308875,-3.44228218463542,0.0132216493750068,FALSE,3.7115943,FALSE,0,0,67
"mp-4934","Al2SiO5",4.9928,32,3,331.094330745294,3.2508320019209,10.3466978357904,7,62,5.76742386,90,-7.6450446740625,-8.0744196740625,-3.36818051828125,0.0074446799999989,FALSE,3.59469466,FALSE,0,0,59
"mp-4936","Yb(SiPt)2",0,5,3,85.6943818503385,12.0019889790194,17.1388763700677,4,139,4.19311976311346,111.561531133767,-5.856800992,-5.828400992,-0.921898796000001,0,TRUE,6.36083524,FALSE,1.3e-06,0,162
"mp-4937","SNF",3.4515,24,3,419.081418456151,2.06263401186992,17.4617257690063,4,114,9.615293,90,-5.09731307916667,-5.3716464125,-0.576838492708333,0.255456177447918,FALSE,-0.173909,FALSE,0.0016818,0,32
"mp-4938","ScCo3B2",0,6,3,60.2524887835588,6.70740495303992,10.0420814639265,6,191,4.86891601001403,90,-7.38235534333333,-7.38235534333333,-0.546321004722222,0,TRUE,5.80666667,FALSE,0.000946,0,80
"mp-4939","Dy(FeSi)2",0,5,3,73.9113639867007,7.42209745553811,14.7822727973402,4,139,3.87698121937398,110.140586548668,-7.15692853,-7.12852853,-0.649035465999999,0,TRUE,6.38001403,TRUE,1.963384,2,106
"mp-4941","Sr2SnO4",2.7108,14,3,209.102017906871,5.68512900588491,14.9358584219194,7,64,5.72395786284632,90,-6.27436216285714,-6.66693359142857,-2.78474593333333,0.0020946014285714,FALSE,2.89871975,FALSE,0,0,112
"mp-4950","KCaF3",6.1392,5,3,90.0193565751233,2.51188322213785,18.0038713150247,3,221,4.481726,90,-5.193943296,-5.471143296,-3.7010561501,0.0238642845000001,FALSE,-2.37353191,FALSE,0,0,57
"mp-4952","La2MgNi2",0,10,3,225.667304308162,6.17369618918736,22.5667304308162,4,127,3.90525792,90,-4.918682413,-4.918682413,-0.312168888999999,0,TRUE,7.25619041,FALSE,8.8e-06,0,97
"mp-4953","CdGeAs2",0.0085000000000001,8,3,202.405058230684,5.49497040379251,25.3006322788355,4,122,5.97774943750205,115.01768663808,-3.8071979725,-3.8071979725,-0.0911593662499998,0,TRUE,2.68030662,FALSE,0,0,113