"material_id","formula_pretty","band_gap","nsites","nelements","volume","density","density_atomic","crystal_symmetry","symmetry_number","sides_abc","angles_abc","uncorrected_energy_per_atom","energy_per_atom","formation_energy_per_atom","energy_above_hull","is_stable","efermi","is_magnetic","total_magnetization","num_magnetic_sites","atomic_number"
"mp-2347","NiAs",0,4,2,60.9581533665017,7.27951603290151,15.2395383416254,6,194,3.51903413788755,90,-5.1673662725,-5.1673662725,0.0522612699999998,0.343972487142856,FALSE,7.04906073,FALSE,0.0315251,0,61
"mp-2348","Zr2Au",0,3,2,63.4531238000133,9.92910477106518,21.1510412666711,4,139,3.30035570519883,105.245450872625,-7.20678122,-7.20678122,-0.417020133333333,0,TRUE,4.90810814,FALSE,3e-07,0,119
"mp-2349","YCd3",0,8,2,186.224145144411,7.59966123267487,23.2780181430513,7,63,4.91407773,118.690657720778,-2.60182564125,-2.60182564125,-0.293040542916667,0,TRUE,3.03844963,FALSE,0,0,135
"mp-2350","LaS",0,2,2,50.9072687198345,5.57686852603327,25.4536343599173,3,225,4.16004676013578,60.0000034915342,-6.69933697,-6.95083697,-2.4146084840625,0,TRUE,8.96063962,FALSE,3.5e-06,0,73
"mp-2351","TmPt3",0,4,2,67.1089406397639,18.6615323272431,16.777235159941,3,221,4.06374824,90,-6.73282004,-6.73282004,-1.06051119416667,0,TRUE,6.40170824,FALSE,2e-06,0,225
"mp-2352","Na2O",1.8736,3,2,41.2539526711387,2.4947536447164,13.7513175570462,3,225,3.87846822759065,59.9999937879522,-3.74053954,-3.96953954,-1.43895977395115,0,TRUE,0.65267651,FALSE,0,0,19
"mp-2354","Ti3Hg",0,8,2,138.756779176658,8.23804941659047,17.3445973970823,3,223,5.17707834,90,-6.10029055375,-6.10029055375,-0.102751449999999,0,TRUE,5.47905382,FALSE,5e-07,0,124
"mp-2355","MoN",0,4,2,49.3273227273935,7.40242042337161,12.3318306818484,6,191,3.39928150928648,90,-8.0968403425,-8.2773403425,1.313732175,1.86084400375,FALSE,7.20270719,FALSE,0.0043227,0,49
"mp-2358","SmAl2",0,6,2,125.207167259049,5.41960111910458,20.8678612098415,3,227,5.61540852597431,60.0000024882003,-4.584500505,-4.584500505,-0.514587906666667,0,TRUE,5.67583266,FALSE,1e-07,0,75
"mp-2359","NdPt5",0,6,2,110.71528467602,16.7930064744727,18.4525474460033,6,191,5.38725686,90,-6.54742599333333,-6.54742599333333,-0.693456987916666,0,TRUE,6.30932916,FALSE,0,0,372
"mp-2360","CaGe",0,4,2,98.8267023206375,3.78789614777893,24.7066755801594,7,63,4.02399349,112.933768604435,-3.975707745,-3.975707745,-0.6613938775,0,TRUE,4.57669187,FALSE,4e-07,0,52
"mp-2361","Hf5Al3",0,16,2,320.577364385195,10.0840543739191,20.0360852740747,6,193,8.07586084,90,-7.919503515625,-7.919503515625,-0.291669435625,0.0529479556250001,FALSE,5.08852915,FALSE,1.2428362,0,314
"mp-2363","HfMo2",0,6,2,107.693486905482,11.4215607975702,17.9489144842469,3,227,5.34033115027939,59.9999929689208,-10.7213051266667,-10.7213051266667,-0.171808710000001,0,TRUE,6.58650454,FALSE,2e-07,0,114
"mp-2364","PaO2",0,3,2,40.1190229546505,10.8870887136098,13.3730076515502,3,225,3.8425701515623,59.9999951903867,-10.0446947933333,-10.5026947933333,-4.0333474325,0,TRUE,10.78746275,FALSE,0.0020877,0,99
"mp-2365","Pr4As3",0,14,2,377.13378195759,6.9426894341433,26.938127282685,3,220,7.8832588374246,109.471220278159,-5.98806879857143,-5.98806879857143,-1.25935762214286,0.018770345,FALSE,4.71310739,FALSE,4e-07,0,243
"mp-2367","LaC2",0,3,2,51.2639389584483,5.27751940507633,17.0879796528161,4,139,3.95039945093297,117.262314744255,-7.95802522,-7.95802522,-0.160245856666666,0,TRUE,7.17532524,FALSE,1.4e-06,0,63
"mp-2369","SnPd",0,8,2,156.405662221021,9.5607065564002,19.5507077776276,7,62,4.00620273,90,-5.12654197625,-5.12654197625,-0.53181514375,0,TRUE,7.81779058,FALSE,0,0,96
"mp-2370","PrNi5",0,6,2,82.7913924820345,8.71221094659352,13.7985654136724,6,191,4.93196901062313,90,-5.87457214166667,-5.87457214166667,-0.260973949166667,0,TRUE,6.44883295,TRUE,1.8719821,6,171
"mp-2371","Ga2Te5",0.9609,7,2,228.921468412721,5.63939880397938,32.7030669161031,4,87,6.71403232079596,105.392006496113,-3.35002744142857,-3.65145601285714,-0.54106722547619,0,TRUE,3.65240423,FALSE,0,0,239
"mp-2373","PrFe2",0,6,2,104.740000559528,8.00932334763476,17.4566667599214,3,227,5.29105801208964,60,-7.12274115166667,-7.12274115166667,0.117574906666667,0.117574906666667,FALSE,4.88423839,TRUE,7.7778859,6,85
"mp-2375","NpPd3",0,4,2,70.8989315844547,13.0282846376411,17.7247328961137,3,221,4.138852,90,-7.2762792675,-7.2762792675,-0.1544229896875,0.325321439375,FALSE,8.53767735,FALSE,0.1267813,0,92
"mp-2377","GaMo3",0,8,2,120.941836169602,9.81817604715005,15.1177295212002,3,223,4.9452948,90,-9.05871447375,-9.05871447375,-0.167452885625,0,TRUE,7.43084363,FALSE,1e-07,0,115
"mp-2378","Th3Al2",0,10,2,276.696084530363,9.00289276346516,27.6696084530363,4,127,3.7794293,90.0013499720166,-6.175809125,-6.175809125,-0.229263843,0.0433823736666667,FALSE,6.77144367,FALSE,1e-06,0,193
"mp-2379","CoSi2",0,3,2,37.4904059118712,5.09823801258236,12.4968019706237,3,225,3.75674609161239,59.9999773016788,-6.45641783666667,-6.40908450333333,-0.422766551666668,0,TRUE,9.49187212,FALSE,1.2e-06,0,41
"mp-2381","ErRh",0,2,2,38.1834544136039,11.7490340658812,19.091727206802,3,221,3.36737698,90,-6.912765505,-6.912765505,-0.946752165,0,TRUE,4.64695968,FALSE,3e-07,0,113
"mp-2384","LaP",0,2,2,55.815492124655,5.05399290773965,27.9077460623275,3,225,4.28966286701809,60.000012733,-6.742920615,-6.742920615,-1.56826580916667,0,TRUE,6.42988342,FALSE,1e-07,0,72
"mp-2385","TaCr2",0,6,2,82.0527528632256,11.5329252942636,13.6754588105376,3,227,4.87756069521119,60.0000051472194,-10.5020696183333,-10.5020696183333,-0.114112094999999,0,TRUE,6.58193025,FALSE,8e-07,0,97
"mp-2387","Th2Zn",0,6,2,161.775325169721,10.8697754249107,26.9625541949535,4,140,5.55460987497291,77.8186722036764,-5.519767545,-5.519767545,-0.157280841666668,0,TRUE,6.47007217,FALSE,2e-07,0,120
"mp-2388","CdTe",0,2,2,57.6747996487568,6.91025620099095,28.8373998243784,3,225,4.33677639868509,60,-2.31813338,-2.52913338,-0.496035553333333,0.17327309,FALSE,3.76572217,FALSE,1.9e-06,0,100
"mp-2389","NdMg2",0,6,2,162.655707690127,3.93762118304541,27.1092846150211,3,227,6.12719208802986,59.9999974594437,-2.756923,-2.756923,-0.100687155833333,0.0188952900000001,FALSE,3.29071385,FALSE,1.2e-06,0,72
"mp-2390","YbP",0,2,2,47.651818229883,7.10933673696813,23.8259091149415,3,225,4.0694102334309,59.9999936241905,-4.210417155,-4.210417155,-0.733961761666666,0,TRUE,2.25180187,FALSE,2.8e-06,0,85
"mp-2391","YbPd3",0,4,2,65.5876215217594,12.4639888369175,16.3969053804398,3,221,4.03280566,90,-4.966522115,-4.966522115,-0.6967086875,0,TRUE,3.77536833,FALSE,2e-06,0,162
"mp-2393","YTl3",0,4,2,105.880208735333,11.0104713027179,26.4700521838332,3,221,4.73084003,90,-3.639017585,-3.639017585,-0.250417446666666,0,TRUE,6.27455999,FALSE,5e-07,0,201
"mp-2395","Sb3Rh",0,16,2,403.516351949828,7.70665485459503,25.2197719968642,3,204,8.06295687547652,109.471213629418,-5.3338698475,-5.4778698475,-0.54004195,0,TRUE,7.2353811,FALSE,0,0,147
"mp-2396","HoCo2",0,6,2,90.219789718436,10.4100217109017,15.0366316197393,3,227,5.03407936337809,60.0034928945579,-6.489755945,-6.489755945,-0.223407791666667,0,TRUE,4.63762742,TRUE,4.0427667,6,94
"mp-2398","ScSn2",0,12,2,282.404735478349,6.64147833850687,23.5337279565291,4,141,4.25283062680566,97.6850721186453,-5.2522895325,-5.2522895325,-0.468418594166667,0,TRUE,7.5865219,FALSE,4e-07,0,71
"mp-2399","YHg",0,2,2,50.9095143336894,9.44261941672968,25.4547571668447,3,221,3.70623527,90,-3.901356785,-3.901356785,-0.516281045833333,0,TRUE,3.85397117,FALSE,1.07e-05,0,119
"mp-2400","NaS",1.2348,8,2,174.630997634632,2.09402904250395,21.828874704329,6,194,4.4515464,90,-3.55636989125,-3.80786989125,-1.07838231108836,0,TRUE,2.01368961,FALSE,0,0,27
"mp-2402","NaSi",1.1286,16,2,381.463252533372,1.77867680649811,23.8414532833358,1,15,6.55294730695125,77.6981912489276,-3.384706336875,-3.349206336875,0.0247153248491378,0.0247153248491378,FALSE,2.33663347,FALSE,0,0,25
"mp-2403","YPt3",0,4,2,68.9390504725825,16.2384807929039,17.2347626181456,3,221,4.1003579,90,-7.13895247,-7.13895247,-0.968984701666667,0,TRUE,6.37082788,FALSE,1.96e-05,0,195
"mp-2404","CaAl2",0,6,2,127.494572660065,2.44965537430535,21.2490954433442,3,227,5.64939876303559,59.9999967364057,-3.49832025333333,-3.49832025333333,-0.332736406666666,0,TRUE,5.27749029,FALSE,2e-07,0,33
"mp-2406","Mg5Pd2",0,28,2,527.361403851683,4.21135214635361,18.8343358518458,6,194,8.63939111010165,90,-3.09516601535714,-3.09516601535714,-0.472142605357143,0,TRUE,4.0070547,FALSE,0,0,94
"mp-2408","Ga3Pd5",0,16,2,233.694698892747,10.5343094147329,14.6059186807967,7,55,4.0147469,90,-5.009586246875,-5.009586246875,-0.6366241071875,0.0130909853125,FALSE,5.01937333,FALSE,1e-07,0,246
"mp-2409","Ni5Sb2",0,14,2,186.099349514493,9.58292325129154,13.2928106796067,1,12,5.3971486284429,115.526708653003,-5.47856122285714,-5.53341836571429,-0.225034668571429,0,TRUE,9.75994977,FALSE,1e-07,0,163
"mp-2410","SrAg5",0,6,2,130.044043526455,8.00569718922045,21.6740072544092,6,191,5.71044569,90,-2.82799251333333,-2.82799251333333,-0.185946935,0,TRUE,2.95681065,FALSE,0,0,226
"mp-2412","LiP5",1.1637,24,2,460.020132363672,2.33634566803444,19.167505515153,7,33,6.57382759,90,-5.02271643083333,-5.02271643083333,-0.193477197499999,0.010413373095238,FALSE,4.49967053,FALSE,0,0,63
"mp-2413","Ce3Al",0,4,2,106.096207302299,7.00126982270891,26.5240518255747,3,221,4.73405104,90,-5.54699414,-5.54699414,-0.16078331625,0.0132843925000001,FALSE,8.13949756,TRUE,3.6085684,3,129
"mp-2414","SO3",5.1448,48,2,682.767669037754,2.33663210651512,14.2243264382865,7,33,5.16848274,90,-5.80728734416667,-6.32253734416667,-1.57840834401042,0,TRUE,-2.50053793,FALSE,0,0,32
"mp-2415","DyTl3",0,4,2,104.95067675948,12.2724026249601,26.23766918987,3,221,4.71695516,90,-3.15703318,-3.15703318,-0.23335411,0,TRUE,6.26303946,FALSE,2e-07,0,228
"mp-2416","YF3",7.5457,16,2,190.760599009064,5.08017715571597,11.9225374380665,7,62,4.35539975,90,-7.131701599375,-7.478201599375,-4.42797459541667,0,TRUE,-0.54209744,FALSE,0,0,57
"mp-2417","DyIr3",0,4,2,66.8115218081727,18.3709198413486,16.7028804520432,3,221,4.057736,90,-8.21753961,-8.21753961,-0.437017265,0.18422525375,FALSE,7.54288257,FALSE,0.0010398,0,220
"mp-2418","PdSe2",0.4001,12,2,276.089714769685,6.35948205794214,23.0074762308071,7,61,5.75505548,90,-4.33905936416667,-4.65372603083333,-0.596491109062499,0,TRUE,2.65838362,FALSE,0,0,80
"mp-2420","PW",0,8,2,116.491617030581,12.2483197653844,14.5614521288226,7,62,3.27062192,89.999961192715,-9.55471873375,-9.55471873375,-0.369002365416668,0,TRUE,9.13926213,FALSE,1e-07,0,89
"mp-2422","ErGa2",0,3,2,60.4963060873462,8.41862367077781,20.1654353624488,6,191,4.14588296,90,-4.15113138333333,-4.15113138333333,-0.609827765,0,TRUE,3.81635668,FALSE,4e-06,0,99
"mp-2423","US",0,2,2,44.182489608629,10.1511140087079,22.0912448043145,3,225,3.96815342713852,59.9999933744488,-9.086345055,-9.337845055,-1.6239151165625,0,TRUE,10.9404428,TRUE,2.8155502,1,108
"mp-2424","LaZn5",0,6,2,107.214142483888,7.21666881448875,17.8690237473147,6,191,5.40449917,90,-2.18606002333333,-2.18606002333333,-0.313605830833333,0.0069221535000001,FALSE,4.6253294,FALSE,0.0002362,0,177
"mp-2426","LiAg",0,2,2,30.4514247136979,6.2606319276528,15.225712356849,3,221,3.12274033,90,-2.592508445,-2.592508445,-0.22176901,0,TRUE,1.94548702,FALSE,2e-07,0,50
"mp-2430","ZrGe2",0,6,2,109.525165710096,7.17139533843165,18.2541942850159,7,63,3.811345117981,90,-6.52931445833333,-6.52931445833333,-0.598062344999999,0,TRUE,6.80182543,FALSE,0,0,72
"mp-2431","ErTl3",0,4,2,103.910302711651,12.4713279872587,25.9775756779127,3,221,4.70131701,90,-3.1123187525,-3.1123187525,-0.19840669,0,TRUE,6.30294678,FALSE,8e-07,0,230
"mp-2432","CaMg2",0,12,2,337.902830054846,1.74334010419169,28.1585691712371,6,194,6.27560629000008,90,-1.84152208833333,-1.84152208833333,-0.106135428333333,0,TRUE,2.74388974,FALSE,0.0166919,0,32
"mp-2434","SrTl",0,2,2,67.0645978008567,7.2300871566537,33.5322989004283,3,221,4.06285299,90,-2.456537935,-2.456537935,-0.430469635,0,TRUE,4.01961592,FALSE,2e-06,0,119
"mp-2435","HoCo5",0,6,2,81.5204377835341,9.36179470403026,13.586739630589,6,191,4.9054911000223,90,-6.80562319833333,-6.80562319833333,-0.118290224166667,0.0219868824242421,FALSE,4.68442046,TRUE,7.9094534,6,175
"mp-2436","EuZn5",0,6,2,105.659955780685,7.52804742227998,17.6099926301141,6,191,5.37667203025696,90.0001086974667,-3.01534716166667,-3.01534716166667,-0.25606052,0,TRUE,2.80782082,TRUE,7.1059857,1,183
"mp-2437","IrF3",1.1411,8,2,97.3576147981159,8.50116574389446,12.1697018497645,2,167,5.3941194793818,54.7300163073865,-4.90664115,-5.25314115,-1.609923379375,0,TRUE,2.27501168,FALSE,0,0,95
"mp-2439","ZrNi5",0,6,2,73.4415480695026,8.69799794341055,12.2402580115838,3,216,4.7004471283827,60.0040961665089,-6.5613642,-6.5613642,-0.319966861666667,0.0005126866666671,FALSE,6.98916686,TRUE,1.4695116,5,152
"mp-2441","Cd3P2",0.2006,40,2,956.912938081493,5.54161055493145,23.9228234520373,4,137,8.80257436,90,-2.76393627925,-2.76393627925,-0.0448814205833333,0.0280968487500006,FALSE,2.35671948,FALSE,1e-07,0,111
"mp-2442","ErAu",0,2,2,44.3069351193325,13.6504767199574,22.1534675596663,3,221,3.53853832,90,-4.806268835,-4.806268835,-0.88546843,0.0142043425000002,FALSE,4.71216913,FALSE,3e-07,0,147
"mp-2443","DyHg",0,2,2,50.3744611870001,11.9688650852982,25.1872305935001,3,221,3.69320548,90,-2.941555095,-2.941555095,-0.4863214925,0,TRUE,3.79327473,FALSE,0,0,146
"mp-2444","GaRh",0,2,2,27.1673766673236,10.5514923935715,13.5836883336618,3,221,3.00618637,90,-5.8761615,-5.8761615,-0.67995955375,0,TRUE,6.40184906,FALSE,0,0,76
"mp-2447","P4Se5",1.8241,36,2,1032.69549696675,3.33617564281369,28.6859860268542,7,33,6.81272973,90,-4.39845862638889,-4.66068084861111,-0.312595580283564,0.0091859159259257,FALSE,1.29304331,FALSE,0,0,181
"mp-2449","NbRh3",0,4,2,58.3628288602612,11.4269732174428,14.5907072150653,3,221,3.87893151,90,-8.5485088625,-8.5485088625,-0.4999517,0.0084126687499992,FALSE,7.03111414,FALSE,0,0,131
"mp-2450","CaSn",0,4,2,121.747386985585,4.33148807273375,30.4368467463963,7,63,4.82751740721093,90,-3.6556970125,-3.6556970125,-0.648111145,0,TRUE,5.06277154,FALSE,4.9e-06,0,70
"mp-2451","YAl3",0,12,2,232.792559523312,3.63469521343782,19.399379960276,2,166,7.85189418188117,46.5259079158458,-4.86103133333333,-4.86103133333333,-0.435231682499999,0.0026384491666666,FALSE,6.08769584,FALSE,0,0,65
"mp-2452","P2O5",5.2021,14,2,173.540338103434,2.71642235998707,12.3957384359595,7,43,4.83501677441602,99.5390988031011,-7.02906137642857,-7.51977566214286,-2.43976872363095,0,TRUE,-0.04018997,FALSE,0,0,47
"mp-2454","TiFe2",0,12,2,159.381190551277,6.64948306467207,13.281765879273,6,194,4.84550272689981,90.0000073028647,-8.56189671666667,-8.56189671666667,-0.283385237777778,0,TRUE,5.78954006,TRUE,13.676235,12,48
"mp-2455","As2Os",0.6647,6,2,102.413553134958,11.0279316910238,17.068925522493,7,58,3.04327858,90,-7.067428355,-7.067428355,-0.218893608333334,0,TRUE,6.41089284,FALSE,0,0,109
"mp-2457","Tb2O3",3.9407,15,2,209.095842121802,8.71619040471529,13.9397228081201,1,12,3.51252263,99.7530654076284,-8.353684984,-8.765884984,-3.94412531725,0.0402181417500013,FALSE,2.12927109,FALSE,0,0,81
"mp-2458","TbO2",0,3,2,40.96060566786,7.74004692223494,13.65353522262,3,225,3.86925295131373,60,-7.57372214333333,-8.03172214333333,-3.18914096916667,0.131145246666668,FALSE,1.64419127,TRUE,0.9997139,2,73
"mp-2459","YbIn",0,2,2,53.3530321123993,8.95918068210889,26.6765160561996,3,221,3.76460749,90,-2.644068435,-2.644068435,-0.49842243,0,TRUE,4.59267228,FALSE,4e-07,0,119
"mp-2460","Er2O3",4.1023,15,2,197.49749428323,9.64847320234555,13.166499618882,1,12,3.43167153077312,99.8932070744492,-8.39252896933333,-8.80472896933333,-4.00962821858333,0.0482292546666673,FALSE,2.03713068,FALSE,0,0,84
"mp-2461","CaGa4",0,5,2,98.3215758112391,5.38703882340397,19.6643151622478,1,12,4.31308697733824,69.4600022735811,-3.187540334,-3.187540334,-0.36394354,0.0016006819999998,FALSE,3.75063247,FALSE,0,0,113
"mp-2462","PrCu5",0,6,2,91.3610403448454,8.3360011265632,15.2268400574742,6,191,5.09052394,90,-4.36105015833333,-4.36105015833333,-0.148226974166667,0,TRUE,5.6883256,FALSE,4e-07,0,175
"mp-2463","LuFe2",0,6,2,93.4564720201447,10.1866705841785,15.5760786700241,3,227,5.09379281457277,59.9999074023104,-7.32871680166667,-7.32871680166667,-0.175052488333333,0,TRUE,4.39205142,TRUE,7.3041076,6,97
"mp-2465","DyPt3",0,4,2,68.6315174578321,18.0918542110216,17.157879364458,3,221,4.09425166,90,-6.7123366125,-6.7123366125,-1.0072899125,0,TRUE,6.37349912,FALSE,3.3e-06,0,222
"mp-2466","ErAu2",0,3,2,60.7448914828929,15.3409026877629,20.2482971609643,4,139,3.68125818495467,110.799307922054,-4.58542874,-4.58542874,-0.880267803333333,0,TRUE,4.67337241,FALSE,7e-07,0,147
"mp-2468","ErHg",0,2,2,49.0200049414781,12.4607828138527,24.5100024707391,3,221,3.65980363,90,-2.920685995,-2.920685995,-0.4849864075,0,TRUE,3.84836674,FALSE,3e-07,0,148
"mp-2469","CdS",1.0492,2,2,50.9776933395877,4.70613765491418,25.4888466697939,3,216,4.16196443316486,60.0000039275493,-3.160548685,-3.412048685,-0.8823788715625,0.0014609824999998,FALSE,0.9195785,FALSE,0,0,64
"mp-2470","DyS",0,2,2,41.669191927333,7.75351689220308,20.8345959636665,3,225,3.89143729636191,59.9999931653819,-6.36159332,-6.61309332,-2.2414749665625,0,TRUE,6.50830835,FALSE,1.4e-06,0,82
"mp-2472","SrO",3.2748,2,2,34.4984002566102,4.98759538059111,17.2492001283051,3,225,3.65402314135844,59.9999898904836,-6.052318075,-6.395818075,-3.07772699270833,0,TRUE,1.66284593,FALSE,0,0,46
"mp-2473","Re3As7",0,20,2,340.761724996764,10.55566730721,17.0380862498382,3,229,7.62121536410322,109.471246270699,-7.0721745555,-7.0721745555,-0.0774335164999996,0,TRUE,7.50851808,FALSE,0.5324013,0,348
"mp-2474","YAg",0,2,2,47.6367584285703,6.8592198146323,23.8183792142851,3,221,3.62505055,90,-4.97936705,-4.97936705,-0.329853491666666,0,TRUE,3.79649224,FALSE,0.0001426,0,86
"mp-2475","SmAg",0,2,2,50.0684838891598,8.56423004832859,25.0342419445799,3,221,3.68571271,90,-4.05268086,-4.05268086,-0.277109790833333,0,TRUE,3.49587669,FALSE,1.1e-06,0,109
"mp-2478","NbSi2",0,9,2,131.758587838587,5.63641772799593,14.6398430931763,6,180,4.80627486000005,90,-7.53321949111111,-7.48588615777778,-0.501905791111112,3.52666666625367e-06,FALSE,8.7826126,FALSE,0,0,55
"mp-2480","OsSe2",0.204000000000001,12,2,213.781358138846,10.8169707793009,17.8151131782372,3,205,5.97938628,90,-6.25049002083333,-6.5651566875,-0.492093225729166,0,TRUE,6.07634959,FALSE,0,0,110
"mp-2481","Mg2Cu",0,12,2,211.917985851301,3.51531124279881,17.6598321542751,7,70,5.17132030098036,97.9912397220265,-2.55200470666667,-2.55200470666667,-0.118749116666667,0,TRUE,4.45690023,FALSE,0,0,41
"mp-2482","CaC2",1.3593,3,2,47.9229386670849,2.22105657136436,15.9743128890283,4,139,3.8685972499427,117.341434107138,-6.79875994333333,-6.79875994333333,0.0222170116666653,0.0222170116666662,FALSE,1.37513685,FALSE,0,0,26
"mp-2483","DyMn2",0,6,2,94.1364170370204,9.60927030130938,15.6894028395034,3,227,5.10611847611099,60,-7.502223325,-7.502223325,0.141382483045975,0.144181738333333,FALSE,4.95092798,TRUE,4.4973619,6,91
"mp-2484","SmSn3",0,4,2,106.056020674941,7.93020920915016,26.5140051687352,3,221,4.73345707,90,-4.64742976,-4.64742976,-0.460604335,0,TRUE,7.74891287,FALSE,2.9e-06,0,162
"mp-2486","UC2",0,3,2,37.7935355137114,11.5137356496264,12.5978451712371,4,139,3.54411805176195,116.906717098962,-10.0273581766667,-10.0273581766667,-0.111111178333334,0,TRUE,10.56593398,TRUE,1.3489767,1,98
"mp-2488","SiOs",0.5122,8,2,108.257965588202,13.3947248915905,13.5322456985253,3,198,4.76599176,90,-8.69021994,-8.65471994,-0.328377209999999,0.0478655366666611,FALSE,9.83219609,FALSE,0,0,90
"mp-2489","UC",0,2,2,30.0719511412259,13.8069039369124,15.0359755706129,3,225,3.49053709527466,59.9999854307169,-10.383845765,-10.383845765,-0.123808013750001,0,TRUE,11.33445738,FALSE,0.0007439,0,98
"mp-2490","GaP",1.6039,2,2,40.5058667192971,4.12806639442831,20.2529333596486,3,216,3.85488105585342,60.0000014476154,-4.630545515,-4.630545515,-0.409846250416666,0,TRUE,3.4774535,FALSE,0,0,46