"material_id","formula_pretty","band_gap","nsites","nelements","volume","density","density_atomic","crystal_symmetry","symmetry_number","sides_abc","angles_abc","uncorrected_energy_per_atom","energy_per_atom","formation_energy_per_atom","energy_above_hull","is_stable","efermi","is_magnetic","total_magnetization","num_magnetic_sites","atomic_number"
"mp-557","TeO2",2.8044,12,2,178.689872826777,5.93251398504027,14.8908227355647,4,92,4.83261952,90,-5.37201676666667,-5.83001676666667,-1.48445566138889,0.0110951837500001,FALSE,4.25115919,FALSE,0,0,60
"mp-558","YMn2",0,6,2,94.9291746841598,6.95434629454577,15.8215291140266,3,227,5.12041193258589,60,-8.10274816,-8.10274816,0.160752405823755,0.161942839814815,FALSE,4.98810849,TRUE,1.7613805,4,64
"mp-559","YPd3",0,4,2,68.9170544320939,9.83465334034013,17.2292636080235,3,221,4.09992176,90,-6.3633796475,-6.3633796475,-0.861850511666667,0,TRUE,5.26035145,FALSE,9e-07,0,131
"mp-560","TmAu2",0,3,2,60.1805072804295,15.5309960468128,20.0601690934765,4,139,3.66929608356708,110.777135818168,-4.56415604333333,-4.56415604333333,-0.889622902222222,0,TRUE,4.65772923,FALSE,0,0,148
"mp-561","Nb3Se4",0,14,2,311.810623411086,6.33261733403146,22.2721873865061,6,176,10.1565714986612,90,-7.19120272357143,-7.46091700928571,-1.13412257633929,0,TRUE,4.2766687,FALSE,1e-07,0,184
"mp-562","Sb2Pt",0,12,2,274.596465760817,10.6093000832926,22.8830388134014,3,205,6.49977487,90,-5.25529978416667,-5.25529978416667,-0.478921184166667,0,TRUE,7.81175478,FALSE,0,0,129
"mp-563","C3N4",0.873800000000001,14,2,78.0025225283189,3.91955016128418,5.57160875202278,3,227,4.79594891497063,60,-7.00068843071429,-7.206974145,1.51187959464286,1.51187959464285,FALSE,10.55187674,FALSE,0.0004373,0,33
"mp-564","TePd",0,4,2,86.9082127893831,8.94275327712651,21.7270531973458,6,194,4.18200749,90,-4.52693652,-4.73793652,-0.576342668333333,0,TRUE,7.00689549,FALSE,3.8e-06,0,98
"mp-565","Sn2Rh",0,6,2,118.605800876495,9.52944601248714,19.7676334794158,4,140,5.37714099373051,106.442773723615,-5.52722577,-5.52722577,-0.399408576666667,0.0151587841666662,FALSE,9.28123242,FALSE,2.2e-06,0,95
"mp-566","CeP5",0,12,2,257.055759033256,3.81110933208236,21.4213132527714,1,11,9.63297595,76.0338360888666,-6.008617845,-6.008617845,-0.508684230277777,0.0137486000000004,FALSE,8.02476351,TRUE,1.9954581,2,118
"mp-567","La3S4",0,14,2,334.834023276684,5.40539226166169,23.9167159483346,3,220,7.57676581955308,109.471222932354,-6.64051135857143,-6.92793993,-2.44882267535714,0.0227546757142862,FALSE,8.93785968,FALSE,0.0005463,0,162
"mp-568","TiSb2",0,6,2,130.203767600502,7.43234248772245,21.7006279334169,4,140,5.55543329083763,105.79035455053,-5.77549190833333,-5.90349190833333,-0.518993742777778,0,TRUE,8.91660244,FALSE,0,0,73
"mp-569","NdCo5",0,6,2,85.9343618478104,8.48116892309669,14.3223936413017,6,191,5.0173920582447,90,-6.75327723666667,-6.75327723666667,-0.0349878354166672,0.0195859614583335,FALSE,4.37586996,TRUE,7.0897335,6,168
"mp-570","NdTe",0,2,2,64.4538530888019,7.00352638841856,32.226926544401,3,225,4.50043551235443,60.0000098115006,-5.376725435,-5.587725435,-1.63199877208333,0,TRUE,6.00347183,FALSE,3.27e-05,0,112
"mp-571","TiNi",0,2,2,26.6790655656896,6.63245520038321,13.3395327828448,3,221,2.98806613,90,-7.185175,-7.185175,-0.347360651666667,0.0484943749999997,FALSE,7.34818853,FALSE,0.000481,0,50
"mp-572","SmCd",0,2,2,54.8411316261687,7.95646439325731,27.4205658130843,3,221,3.7992873,90,-3.14019282,-3.14019282,-0.3194548725,0,TRUE,2.92220647,TRUE,0.4323072,1,110
"mp-573","Ni3Se4",0,7,2,116.257402681259,7.02624255239245,16.608200383037,1,12,3.62804180942169,119.583968345945,-4.75281015428571,-5.02252444,-0.547659304196428,0.0293382042857137,FALSE,6.24721997,FALSE,4.7e-06,0,158
"mp-574","Ta2Co",0,6,2,91.9079829449451,15.2065772252352,15.3179971574909,4,140,4.96552439080381,75.5326181312612,-10.52388584,-10.52388584,-0.249261488333333,0,TRUE,5.61211459,FALSE,0,0,100
"mp-576","B13C2",0,15,2,111.33818748475,2.45437456226795,7.42254583231665,2,166,5.18364103610449,66.0301278142484,-7.09086141533333,-7.09086141533333,-0.0715664816111105,0,TRUE,4.74924726,FALSE,2e-07,0,6
"mp-578","GaAg2",0,9,2,150.81671620268,9.42899098116896,16.7574129114089,6,189,7.73314932,90,-2.94684034888889,-2.94684034888889,-0.0491043391666667,0,TRUE,3.82959718,FALSE,0,0,78
"mp-579","CrC",0,2,2,17.3326232631164,6.13212381730051,8.66631163155819,3,225,2.90486819621958,60,-9.26940647,-9.26940647,0.17145001125,0.254377572499999,FALSE,8.31598863,TRUE,1.3960778,1,30
"mp-580","PuB2",0,3,2,34.4561326283677,12.8010799327284,11.4853775427892,6,191,3.15737032116823,90,-9.61021928,-9.61021928,-0.401345322777778,0.0197142495833322,FALSE,11.7119878,TRUE,4.0148694,1,5
"mp-582","CeIr2",0,6,2,109.506316039091,15.9084114759937,18.2510526731818,3,227,5.37012695374761,59.9999997266989,-8.66599740666667,-8.66599740666667,-0.796011568333333,0,TRUE,9.40837476,TRUE,1.0822664,2,135
"mp-583","CoAs",0,8,2,105.57543281069,8.42131963589651,13.1969291013363,7,62,3.45630823000707,90.0011822634834,-6.184033515,-6.184033515,-0.300315415000001,0,TRUE,7.42646398,TRUE,1.3688621,4,60
"mp-585","MnB2",0,3,2,23.9806134053063,5.30140507727893,7.99353780176877,6,191,2.98955892,90,-7.79750118333333,-7.79750118333333,-0.290568238754789,0.0927278444444361,FALSE,8.31025251,TRUE,2.933335,1,30
"mp-588","GaF3",4.7051,8,2,91.5331163603231,4.59769197985306,11.4416395450404,2,167,5.22554865440769,55.9939244011993,-4.77357781,-5.12007781,-2.92944457875,0,TRUE,-2.68597241,FALSE,0,0,49
"mp-589","TbFe2",0,6,2,98.5485344525418,9.11971676074057,16.4247557420903,3,227,5.18467720511481,60,-7.24887244833333,-7.24887244833333,-0.0574029416666661,0,TRUE,4.60946854,TRUE,7.7895393,6,91
"mp-590","NiAs",0,4,2,56.3271345105267,7.87801223377676,14.0817836276317,6,194,3.60265918,90,-5.504984405,-5.504984405,-0.2853568625,0.0063543546428554,FALSE,7.54703614,FALSE,3.5e-06,0,61
"mp-592","TiRu",0,2,2,28.9222868645173,8.55104259634525,14.4611434322586,3,221,3.06957001,90,-9.348058925,-9.348058925,-0.763111646666667,0,TRUE,7.89910168,FALSE,1.8e-06,0,66
"mp-593","Al4Cu9",0.321899999999999,52,2,639.998168588042,7.05565228672542,12.3076570882316,3,215,8.61773054,90,-4.19848851057692,-4.19848851057692,-0.208091329807692,0,TRUE,7.88771728,FALSE,1e-07,0,271
"mp-594","NiS",0,4,2,53.0608950307959,5.68056263410711,13.265223757699,6,194,3.43867036786037,90,-5.2273644675,-5.4788644675,-0.520571194062501,0.104749283333328,FALSE,8.2857861,FALSE,1.98e-05,0,44
"mp-597","TiNi",0,18,2,245.458706380858,6.48797261198674,13.6365947989366,2,157,7.24654160025056,90,-7.21096861333333,-7.21096861333333,-0.373154265,0.0227007616666661,FALSE,7.06461834,TRUE,2.4006454,7,50
"mp-599","TiTe",0,4,2,87.2192847793396,6.68131615929328,21.8048211948349,6,194,3.62557160574233,90,-5.8850271925,-6.0960271925,-0.5766282375,0.336018855625,FALSE,8.31983161,FALSE,0.0019433,0,74
"mp-600","YbAs",0,2,2,53.1996034241168,7.73971791733292,26.5998017120584,3,225,4.22157456189418,60,-3.907883585,-3.907883585,-0.8085202425,0.210376023125,FALSE,1.9088529,FALSE,7.38e-05,0,103
"mp-601","PrP",0,2,2,53.0069476394776,5.38449792260445,26.5034738197388,3,225,4.21647190440823,60.0000058166027,-6.607377375,-6.607377375,-1.51027324416667,0,TRUE,4.21145486,FALSE,4e-07,0,74
"mp-602","Te2Mo",0.8633,6,2,161.280150965677,7.23066892428707,26.8800251609462,6,194,3.56565515,90,-5.98485955333333,-6.26619288666667,-0.555438921111111,0.0012659900000002,FALSE,6.39169599,FALSE,0,0,94
"mp-603","Be2Ag",0,6,2,65.3191015012331,6.40086945202375,10.8865169168722,3,227,4.52048552746576,60.0000027143722,-3.41086719833333,-3.41086719833333,0.0262600461111108,0.0262600461111111,FALSE,4.69557534,FALSE,0,0,51
"mp-604","Nb2O5",2.2741,14,2,173.205695866382,5.09668563214081,12.3718354190273,1,15,4.92538050604215,103.480421184886,-8.94720132642857,-9.43791561214286,-3.01847937839286,0.0166346775510213,FALSE,1.10993227,FALSE,0,0,73
"mp-605","ZrTe5",0.0192000000000005,12,2,428.628157004199,5.65014183279824,35.7190130836832,7,63,4.04862539,90,-4.56133987,-4.91300653666667,-0.868968187222222,0,TRUE,4.55240597,FALSE,0,0,248
"mp-606","U3As4",0,14,2,317.783339778866,10.5947019639594,22.6988099842047,3,220,7.45047009632761,109.426948378125,-8.26647303714286,-8.26647303714286,-0.764943944285715,0,TRUE,8.89432675,TRUE,12.0000001,6,283
"mp-607","CeRu2",0,6,2,106.683728177772,10.6544731513548,17.780621362962,3,227,5.32358606773994,60.0000372477498,-8.44402269833333,-8.44402269833333,-0.283391286666666,0,TRUE,8.51216981,FALSE,0.0007366,0,102
"mp-608","TiCo3",0,4,2,46.1441773187105,8.08482593102463,11.5360443296776,3,221,3.58680216,90,-7.566814305,-7.566814305,-0.261702954583334,0,TRUE,6.25721675,TRUE,2.7652851,4,76
"mp-609","CrSn2",0,12,2,233.864652632178,8.21991241761326,19.4887210526815,7,70,10.3444366119883,81.8734407704066,-5.74223262166667,-5.74223262166667,0.148497771666667,0.148497771666667,FALSE,9.20911981,TRUE,1.4617669,4,74
"mp-610","MnAs",0,8,2,139.134596789897,6.19937869293386,17.3918245987371,6,194,3.75118094554392,90.000559100571,-7.14751145,-7.14751145,-0.236944601465517,0.0336280150000005,FALSE,5.69431088,TRUE,14.7171878,2,58
"mp-611","Ag3Sn",0,8,2,150.814401073953,9.74019281709567,18.8518001342442,7,59,4.77458099,90,-3.14600378,-3.14600378,-0.0191938137500002,0,TRUE,5.33017062,FALSE,0,0,144
"mp-612","PS",2.4974,16,2,405.473416266246,2.06530584372248,25.3420885166404,1,15,6.82832243217765,80.4237516429481,-4.91225121875,-5.16375121875,-0.388875031979167,0.0200540853515605,FALSE,0.90834762,FALSE,2e-07,0,31
"mp-613","Te2Pd3",0,10,2,198.60777019598,9.60600153012889,19.860777019598,7,63,3.89741014,90,-4.707508137,-4.707508137,-0.342256693666666,0.121311082600002,FALSE,6.70061415,FALSE,1e-07,0,144
"mp-614","NaO2",0,12,2,168.459460596085,2.16813391620233,14.0382883830071,3,205,5.522874,90,-4.52556705833333,-4.63290039166667,-0.894266153017241,0.0198127783333328,FALSE,0.71275247,TRUE,3.9999993,8,19
"mp-615","YMg",0,2,2,55.244377940006,3.4028990134009,27.622188970003,3,221,3.80857661,90,-4.14415824,-4.14415824,-0.110782658333334,0,TRUE,3.04451837,FALSE,1.01e-05,0,51
"mp-617","PtO2",1.6099,3,2,35.4606345881485,10.6337595232698,11.8202115293828,2,164,3.13453248,90,-5.7861543,-6.2441543,-0.922650719166666,0.0048006000000011,FALSE,2.47480799,FALSE,0,0,86
"mp-618","Pd7Se2",0,18,2,285.457367236985,10.5040855395112,15.8587426242769,1,14,5.38263049,93.5813320588985,-4.96719865166667,-5.07208754055556,-0.266421359965277,0.0127243612963017,FALSE,4.8681334,FALSE,0,0,310
"mp-619","UB4",0,20,2,193.705741437614,9.64482832496095,9.6852870718807,4,127,3.94227883,90,-8.1098149525,-8.1098149525,-0.508019533833333,0,TRUE,10.40772114,FALSE,0.0012504,0,107
"mp-623","HgPt",0,2,2,36.4572846027824,18.0219712410437,18.2286423013912,4,123,3.023661,90,-3.13054587,-3.13054587,0.0568609724999999,0.1157142375,FALSE,5.16268072,FALSE,5.14e-05,0,158
"mp-624","B6As",2.6454,14,2,129.317419464123,3.58996911302661,9.23695853315164,2,166,5.3173616287726,70.4876673340362,-6.56109542071429,-6.56109542071429,-0.170314130714285,0,TRUE,4.53115495,FALSE,0,0,58
"mp-625","Mg3Ru2",0,20,2,329.274230958615,5.54843993268417,16.4637115479308,3,213,6.90535348,90,-4.8132121515,-4.8132121515,-0.1432831055,0,TRUE,5.53339517,FALSE,0,0,68
"mp-626","La4Rh3",0,14,2,362.725270137652,7.91380013974258,25.9089478669751,3,220,7.78155891421902,109.471221751255,-6.68193776357143,-6.68193776357143,-0.705230330714285,0,TRUE,7.74629169,FALSE,2e-06,0,261
"mp-627","NpSe",0,2,2,50.0254233301506,10.4879456995363,25.0127116650753,3,225,4.13588631305486,60.0000032577561,-9.285623965,-9.521623965,-1.29977838554688,0,TRUE,9.69927868,TRUE,4.2950104,1,34
"mp-628","Zr2Co",0,6,2,110.098917115665,7.28114162683373,18.3498195192775,4,140,5.24671544990902,106.322893568777,-8.32520127,-8.32520127,-0.257294918333333,0,TRUE,4.49378539,FALSE,3.5e-06,0,67
"mp-631","TiC",0,2,2,20.3159072569718,4.89415800192894,10.1579536284859,3,225,3.06278795994063,60.0000113846387,-9.37114038,-9.37114038,-0.809061625416668,0,TRUE,7.67533018,FALSE,1e-07,0,28
"mp-632","TmCo2",0,6,2,88.6824318260518,10.7404271808527,14.780405304342,3,227,5.00553907406983,59.9850055057318,-6.49473615166667,-6.49473615166667,-0.263912480555556,0,TRUE,4.4537493,TRUE,4.2013949,6,96
"mp-633","LaSn3",0,4,2,110.858311654882,7.41510244037249,27.7145779137206,3,221,4.8038498,90,-4.81620602,-4.81620602,-0.5750253525,0,TRUE,8.90048074,FALSE,8.98e-05,0,157
"mp-634","HgS",1.7204,6,2,129.137834492974,8.97489224726409,21.5229724154957,2,152,3.92332175596161,90.0486951882213,-2.34376779833333,-2.59526779833333,-0.375202682395834,0.0038070066666664,FALSE,0.86003143,FALSE,0,0,96
"mp-635","ScRh3",0,4,2,59.4818411785693,9.87338060268794,14.8704602946423,3,221,3.90356547,90,-7.7131895625,-7.7131895625,-0.60684138375,0,TRUE,6.41985159,FALSE,1.56e-05,0,111
"mp-637","YB4",0,20,2,202.830945776402,4.32754455155453,10.1415472888201,4,127,4.0189614,90,-7.224510788,-7.224510788,-0.587703148666667,0,TRUE,6.01879864,FALSE,0,0,54
"mp-638","SrZn5",0,6,2,109.443110505444,6.29155575779652,18.2405184175741,6,191,5.4862932,90,-1.54669980166667,-1.54669980166667,-0.215331217777778,0.0072683491666667,FALSE,2.59484852,FALSE,1e-07,0,158
"mp-641","As2S3",2.0989,20,2,511.454413536078,3.19524893842469,25.5727206768039,1,14,4.4717905677742,90.0006786949542,-4.4731227035,-4.7749227035,-0.429405421375,0,TRUE,1.1581801,FALSE,0,0,65
"mp-642","BaCu13",0,28,2,390.889532849826,8.18545760780822,13.9603404589224,3,226,8.20709974773703,59.9999944092853,-3.95099700964286,-3.95099700964286,-0.0075211775000002,0.0029819446428573,FALSE,5.70453964,FALSE,1e-07,0,56
"mp-643","ThO2",4.4187,3,2,43.9265647358682,9.98128407465435,14.6421882452894,3,225,3.9604759056647,59.9999996070464,-9.67971692666667,-10.1377169266667,-4.36863836916667,0,TRUE,4.60125822,FALSE,0,0,98
"mp-644","K5Te3",1.7708,16,2,609.837253832066,3.14928490051593,38.1148283645042,4,87,10.2542752419984,95.6456276516721,-2.8379817525,-2.9962317525,-1.123492700625,0.0124786456250003,FALSE,1.12774985,FALSE,2e-07,0,180
"mp-645","TbP",0,2,2,46.2133465829702,6.82345940090067,23.1066732914851,3,225,4.02804371743003,59.9999913445678,-6.632659605,-6.632659605,-1.60882530166667,0,TRUE,4.59729107,FALSE,0,0,80
"mp-646","PrCd",0,2,2,58.1823508577375,7.22977859131025,29.0911754288688,3,221,3.87492905,90,-3.169255105,-3.169255105,-0.3173573475,0,TRUE,3.15502892,TRUE,0.4515937,1,107
"mp-647","NbS",0,4,2,63.226091847488,6.56437406245152,15.806522961872,6,194,3.30651916,90,-8.0203374575,-8.2718374575,-1.1529600040625,0.0657296840548777,FALSE,7.90156033,FALSE,4e-07,0,57
"mp-648","Na2S",2.4399,3,2,68.6026797001378,1.88908080238431,22.8675599000459,3,225,4.59499800143874,60.0000056527566,-3.32423413666667,-3.49190080333333,-1.23140065207615,0,TRUE,0.35970853,FALSE,0,0,27
"mp-649","FePt3",0,4,2,58.9088990803783,18.071405689105,14.7272247700946,3,221,3.89099168,90,-6.844540965,-6.844540965,-0.173685672499999,0,TRUE,7.45363186,TRUE,4.8586263,4,182
"mp-650","Be5Pd",0,6,2,53.3501229715846,4.7148901424856,8.89168716193076,3,216,4.22555263129255,60.0000014494678,-4.294832965,-4.294832965,-0.3153419425,0,TRUE,4.96670456,FALSE,0,0,62
"mp-654","Ce2Fe17",0,19,2,258.660136731283,7.89373221740518,13.6136914069096,2,166,6.43143158405452,81.8491151322076,-8.18760012052632,-8.18760012052632,0.0153756100000006,0.0411539615789475,FALSE,5.67304237,TRUE,36.5702741,19,58
"mp-655","Na3As",0.064,24,2,588.921295664001,2.43431313035602,24.5383873193334,6,185,8.72295758395311,89.9999976540713,-2.57077714666667,-2.57077714666667,-0.41410357533046,0,TRUE,1.05820111,FALSE,0,0,55
"mp-656","LuS",0,2,2,38.334779356057,8.96795885645321,19.1673896780285,3,225,3.78473832361088,60.0000184694413,-6.20047382,-6.45197382,-2.1232736265625,0,TRUE,6.78123353,FALSE,0.0001078,0,87
"mp-657","YbZn2",0,6,2,116.906444310108,8.6319977085355,19.484407385018,7,74,4.4824636263881,79.7758446350684,-1.71486734,-1.71486734,-0.361835506666667,0,TRUE,2.25824747,FALSE,0,0,100
"mp-661","AlN",4.0467,4,2,42.5272830781804,3.20088971314244,10.6318207695451,6,186,3.128588,90,-7.4449323825,-7.6254323825,-1.584397005,0,TRUE,6.08101269,FALSE,0,0,20
"mp-662","NiSe",0,4,2,60.7752212091808,7.52210666789929,15.1938053022952,6,194,3.65627347,90,-4.8750416175,-5.1110416175,-0.473017538671875,0.0531416441666703,FALSE,7.07737837,FALSE,2.7e-06,0,62
"mp-663","NdGe",0,4,2,100.71512763331,7.15167705796023,25.1787819083276,7,63,4.05732825,112.000861188272,-5.54396178,-5.54396178,-0.848374136249999,0,TRUE,4.73275593,FALSE,6.84e-05,0,92
"mp-665","SnSe2",0.7018,3,2,82.9070527059618,5.54060127577694,27.6356842353206,2,164,3.84189796,90,-4.00622805,-4.32089471666667,-0.653763113229167,0,TRUE,2.70440502,FALSE,0,0,84
"mp-666","UTe2",0,6,2,188.414622371647,8.69386742411115,31.4024370619412,7,71,8.10244800883159,149.613456326646,-6.53699883666667,-6.81833217,-0.958991571111111,0,TRUE,8.37809506,TRUE,5.2180722,2,144
"mp-668","PrGa2",0,3,2,68.7633983433792,6.77014515722705,22.9211327811264,6,191,4.25737195,90,-4.30592953,-4.30592953,-0.693563596666667,0,TRUE,3.56595107,FALSE,1.2e-06,0,90
"mp-669","ThAl2",0,3,2,70.2860373225888,6.75690477801337,23.4286791075296,6,191,4.39740507,90,-5.41668110666667,-5.41668110666667,-0.44834447,0,TRUE,6.8290467,FALSE,4e-07,0,103
"mp-670","NbCo2",0,6,2,78.3197893869885,8.93762410496579,13.0532982311648,3,227,4.80243619217782,59.9999545932244,-8.2503263,-8.2503263,-0.14434609,0.0188824475555566,FALSE,5.74761458,TRUE,6.6304551,6,68
"mp-672","CdS",1.125,4,2,102.038924782749,4.70228479370771,25.5097311956871,6,186,4.16883814,90,-3.1620096675,-3.4135096675,-0.8838398540625,0,TRUE,0.90711455,FALSE,0,0,64
"mp-673","HoNi2",0,6,2,88.188057160427,10.6317935109328,14.6980095267378,3,227,4.99621900951511,59.9999682026342,-5.84531412333333,-5.84531412333333,-0.464420046666667,0,TRUE,6.08797387,FALSE,1.5e-06,0,95
"mp-674","LaPd3",0,4,2,74.2289639351511,10.2493908249455,18.5572409837878,3,221,4.20266203,90,-5.9401874275,-5.9401874275,-0.821274293749999,0,TRUE,7.16228693,FALSE,1.85e-05,0,149
"mp-675","ZrW2",0,6,2,111.421787197329,13.6782587855901,18.5702978662215,3,227,5.40125861927409,60.0000042545606,-11.6338486266667,-11.6338486266667,-0.145861596666668,0,TRUE,5.39058596,FALSE,2e-07,0,114
"mp-676","CaN6",3.4205,14,2,185.212560437126,2.22558469565608,13.2294686026519,7,70,5.93096730965863,77.3071374808958,-7.58547159,-7.89490016142857,-0.462818814285714,0,TRUE,1.01001899,FALSE,0,0,55
"mp-677","SrCd2",0,6,2,174.14698493999,5.95843961611417,29.0244974899983,7,74,5.07903926630791,78.3225525579579,-1.524479495,-1.524479495,-0.346055170555556,0,TRUE,2.23229174,FALSE,0,0,86
"mp-678","Mg54Ag17",0,71,2,1482.24805564648,3.52467106385028,20.8767331781194,7,71,12.4440134912111,107.636966004984,-2.0305789084507,-2.0305789084507,-0.135246869624413,0,TRUE,2.63723384,FALSE,0,0,48
"mp-679","Er2O3",3.9629,40,2,571.322777125844,8.89420998620496,14.2830694281461,3,206,9.0538745651623,109.471222035029,-8.440758224,-8.852958224,-4.05785747325,0,TRUE,1.34341556,FALSE,0,0,84
"mp-681","EuZn2",0,6,2,130.441790555723,7.19969507212011,21.7402984259538,7,74,4.63899812202329,80.8698345752042,-4.56924247833333,-4.56924247833333,-0.310412805,0,TRUE,2.54534985,TRUE,14.3842108,2,93
"mp-682","NaF",6.204,2,2,23.8890262600603,2.9186204569061,11.9445131300301,3,225,3.23274213660573,59.9999957055325,-4.324515685,-4.555515685,-2.93851355452586,0,TRUE,-2.0912328,FALSE,0,0,20
"mp-683","Pr2C3",0,20,2,328.773477094791,6.42141853510968,16.4386738547395,3,220,7.53077247011858,109.471214393026,-7.590082519,-7.590082519,-0.140520921500001,0,TRUE,5.22490877,FALSE,1e-07,0,71
"mp-684","BaS2",1.5982,6,2,181.136080634822,3.69365636672305,30.1893467724704,1,15,4.80735933951621,79.9413521040798,-4.81546350666667,-5.15079684,-1.75350528208333,0,TRUE,2.20192847,FALSE,0,0,72
"mp-692","Tb2C",0,3,2,69.895016053976,7.8367210165654,23.2983386846586,2,166,6.52596099287135,32.1382178339791,-6.41955306,-6.41955306,-0.253753829166666,0,TRUE,3.30989064,TRUE,0.3881675,2,71