"material_id","formula_pretty","band_gap","nsites","nelements","volume","density","density_atomic","crystal_symmetry","symmetry_number","sides_abc","angles_abc","uncorrected_energy_per_atom","energy_per_atom","formation_energy_per_atom","energy_above_hull","is_stable","efermi","is_magnetic","total_magnetization","num_magnetic_sites","atomic_number"
"mp-1927","Dy4Sb3",0,14,2,385.006413955863,8.75783905112251,27.5004581397045,3,220,7.93773074054055,109.471276156868,-5.39177264857143,-5.47405836285714,-1.07203678,0.0169359017857138,FALSE,5.80393834,FALSE,1.6e-05,0,300
"mp-1928","PuMn2",0,6,2,81.4618959897468,14.4269922775826,13.5769826649578,3,227,4.86582520708749,60,-10.4887395566667,-10.4887395566667,0.375216748045978,0.375216748045977,FALSE,11.32989575,TRUE,0.092662,2,25
"mp-1929","NdB6",0,7,2,70.4236579028902,4.93061583960043,10.0605225575557,3,221,4.12958294,90,-6.88167818571429,-6.88167818571429,-0.475321320357142,0,TRUE,6.98005805,FALSE,0,0,85
"mp-1932","Nb3Os",0,8,2,138.2742497804,11.2632448696005,17.28428122255,3,223,5.17107024,90,-10.62449403875,-10.62449403875,-0.241673401250001,0,TRUE,5.56263098,FALSE,0.0001026,0,158
"mp-1933","Cu3N",0.1947,4,2,55.5115325377846,6.12162020371774,13.8778831344462,3,221,3.814706,90,-4.8761983175,-4.9664483175,0.19208041625,0.19208041625,FALSE,4.52308927,FALSE,0,0,65
"mp-1934","LiZn",0,4,2,55.7367154832201,4.31098246198877,13.934178870805,3,227,4.28764475013785,60.0000058615105,-1.803013705,-1.803013705,-0.218680466666667,0,TRUE,1.4764751,FALSE,3e-07,0,33
"mp-1935","BaMg2",0,12,2,404.629349826348,3.05223190120945,33.719112485529,6,194,6.64472627000008,90,-1.7785000975,-1.7785000975,-0.0719884174999997,0,TRUE,2.5630185,FALSE,4.5e-06,0,68
"mp-1936","TaAs",0,4,2,69.5853643763462,12.2117997454952,17.3963410940866,4,109,3.44367825264342,105.716673929069,-8.8018262975,-8.8018262975,-0.543378280000001,0,TRUE,6.82543133,FALSE,0,0,106
"mp-1937","YbCu",0,8,2,166.593213763186,9.43280429583604,20.8241517203982,7,62,4.17444972,90,-3.1090451725,-3.1090451725,-0.2896376975,0,TRUE,3.34137906,FALSE,0,0,99
"mp-1938","Al2O3",5.3132,20,2,171.320761215227,3.95306868519759,8.56603806076135,7,60,4.846933,90,-7.3880020295,-7.8002020295,-3.33395847075,0.0933559135000008,FALSE,6.384043,FALSE,9.25e-05,0,29
"mp-1939","ErNi2",0,6,2,87.3933912090306,10.8169614316275,14.5655652015051,3,227,4.9811708571099,59.9999984197953,-5.8562472,-5.8562472,-0.48024981,0,TRUE,6.03758261,FALSE,3.7e-06,0,96
"mp-1940","Th2N3",0,5,2,81.6122553848903,10.297381695987,16.3224510769781,2,164,3.91346242543927,90,-9.325437064,-9.542037064,-1.574596809,0.119606236333334,FALSE,5.96543544,FALSE,0.0006916,0,104
"mp-1941","GaNi",0,2,2,23.8277305793605,8.94925550219376,11.9138652896802,3,221,2.87758102,90,-4.769186825,-4.769186825,-0.36507047375,0.033383514523809,FALSE,7.62977756,FALSE,7e-07,0,59
"mp-1943","GaSe",1.2387,8,2,203.687206641892,4.848491647752,25.4609008302365,6,194,3.77257507,90,-3.85301922875,-4.08901922875,-0.827015478671875,0.00037984125,FALSE,1.32283105,FALSE,0,0,65
"mp-1944","CoP3",0,16,2,226.768692213541,4.44788556440261,14.1730432633463,3,204,6.65377800438034,109.471215973129,-6.33441432,-6.33441432,-0.497357991249999,0,TRUE,8.32784956,FALSE,0,0,57
"mp-1945","NdCu6",0,28,2,404.962018034022,8.61950632741252,14.4629292155008,1,14,5.05304487312838,90,-4.32768158,-4.32768158,-0.132911943928572,0.0025033442857136,FALSE,5.8834503,FALSE,0,0,205
"mp-1948","LaAg",0,2,2,55.3680489723358,7.40097090739098,27.6840244861679,3,221,3.80798897,90,-4.13843794,-4.13843794,-0.254156385833333,0,TRUE,6.3098626,FALSE,2.3e-06,0,104
"mp-1949","TiMn2",0,12,2,173.042805720485,6.05488479779523,14.4202338100404,6,194,5.08580698000446,90.0000254817116,-9.01199930583333,-9.01199930583333,-0.272158438898469,0,TRUE,6.49755548,TRUE,6.9115623,12,47
"mp-1950","SrS2",1.2822,6,2,144.407161192658,3.48994885399578,24.0678601987763,4,140,5.7949559635692,96.6866099711828,-4.70199600333333,-5.03732933666667,-1.71653160763889,0.0106651458333333,FALSE,4.02449458,FALSE,0,0,54
"mp-1952","Ba7Al13",0,20,2,550.612209129145,3.95688397144027,27.5306104564573,2,164,6.06074637000009,89.9999965035972,-3.323717007,-3.323717007,-0.2174514885,0.0248105197499994,FALSE,4.24936631,FALSE,9e-07,0,336
"mp-1953","TiAl",0,2,2,32.1260577537778,3.86878848864058,16.0630288768889,4,123,2.81075181,90,-6.227478455,-6.227478455,-0.406944531666667,0,TRUE,6.80837283,FALSE,4.1e-06,0,35
"mp-1954","P3N5",2.6005,8,2,77.0709303392508,3.51095785468461,9.63386629240635,7,44,2.629082,108.629209555464,-7.4395432325,-7.6651682325,-0.424870464375,0.0985067231249994,FALSE,7.41190459,FALSE,0,0,58
"mp-1955","ErCu",0,2,2,39.2959461201761,9.75318721413432,19.6479730600881,3,221,3.39976775,90,-4.60668835,-4.60668835,-0.27322561,0,TRUE,4.74001064,FALSE,5.7e-06,0,97
"mp-1956","TmGa2",0,6,2,115.756000442414,8.84753073904033,19.2926667404023,7,74,4.16574156001074,74.0524834286086,-4.11112838833333,-4.11112838833333,-0.600452565555555,0,TRUE,4.05613267,FALSE,0,0,100
"mp-1958","SrTe",1.7616,2,2,75.5843554465306,4.72824324296141,37.7921777232653,3,225,4.74586786353146,59.9999943207227,-4.159497325,-4.370497325,-1.95409765166667,0,TRUE,2.74147484,FALSE,0,0,90
"mp-1959","PuO2",0,3,2,38.6840110487936,11.8474474934008,12.8946703495979,3,225,3.79619667022476,60.000001771409,-11.2463519033333,-11.7043519033333,-3.65061331916667,0,TRUE,9.94785625,TRUE,3.9999999,1,8
"mp-1960","Li2O",4.854,3,2,25.1963487926023,1.9693024760504,8.39878293086744,3,225,3.29066929378113,59.9999916450391,-4.75453349333333,-4.98353349333333,-2.06202201180555,0,TRUE,-0.15652004,FALSE,0,0,11
"mp-1961","TiAg",0,2,2,34.8136156099813,7.42825412166098,17.4068078049906,4,123,2.888812,90,-5.26700777,-5.26700777,0.0970162399999994,0.16248169,FALSE,4.87301185,TRUE,0.9089819,1,69
"mp-1963","NbRh",0,4,2,63.3320995815286,10.2681982310034,15.8330248953821,4,123,3.88037155,90,-9.134123525,-9.134123525,-0.401317069999999,0,TRUE,6.519086,FALSE,6.24e-05,0,86
"mp-1966","Cu3As",0,32,2,438.663364549194,8.04210473813053,13.7082301421623,3,220,8.29057070694958,109.471224534683,-4.2158629303125,-4.2158629303125,0.0233216734374996,0.0233216734374996,FALSE,6.5440301,FALSE,0,0,91
"mp-1967","TaTe2",0,27,2,754.86960713816,8.63482286259266,27.9581335977096,1,12,9.46671559201246,71.8628716752502,-6.41095976962963,-6.69229310296296,-0.644163297407407,0,TRUE,5.96296059,FALSE,0,0,125
"mp-1968","La2O3",3.8248,5,2,81.783866085227,6.61522658590818,16.3567732170454,2,164,3.93077848,90,-8.380723464,-8.792923464,-3.85050739525,0.0243990772499991,FALSE,5.88685486,FALSE,0,0,73
"mp-1969","NbSb2",0.0047000000000005,6,2,137.98981957965,8.09696177191324,22.998303263275,1,12,3.68289931786722,78.5585120294027,-6.390770785,-6.518770785,-0.399001611666666,0,TRUE,7.91779994,FALSE,0,0,92
"mp-1971","HoCu",0,2,2,39.9488760465933,9.4969844636056,19.9744380232967,3,221,3.41849426,90,-4.607587675,-4.607587675,-0.266779905000001,0,TRUE,4.78681056,FALSE,2.28e-05,0,96
"mp-1973","NbGa3",0,4,2,62.88442534141,7.97666460057044,15.7211063353525,4,139,3.79543087596065,111.736077387632,-5.104863745,-5.104863745,-0.308465468125,0,TRUE,5.36866779,FALSE,3.6e-06,0,103
"mp-1974","CeB4",0,20,2,209.838148918888,5.8040245745681,10.4919074459444,4,127,4.07403967,89.9999549730905,-7.157877591,-7.157877591,-0.627746343333334,0,TRUE,8.43771437,FALSE,2.9e-05,0,73
"mp-1975","TmN",0.1529,2,2,27.4005061617074,11.0866757767742,13.7002530808537,3,225,3.38395499855075,60.0000159830102,-8.22769755,-8.40819755,-2.00203237583333,0,TRUE,3.93739,FALSE,0,0,76
"mp-1976","CaGa4",0,5,2,99.5189232287506,5.32222545109275,19.9037846457501,4,139,4.32770453383014,110.66416562435,-3.189141016,-3.189141016,-0.365544222,0,TRUE,3.86312987,FALSE,1.4e-06,0,113
"mp-1977","NdSn3",0,4,2,108.021362867285,7.69187901150262,27.0053407168212,3,221,4.76251713,90,-4.69960033,-4.69960033,-0.500384580625,0,TRUE,7.75643137,FALSE,1.42e-05,0,160
"mp-1979","HoPd3",0,4,2,67.8723816253882,11.8460104504246,16.968095406347,3,221,4.0791001,90,-5.9361966625,-5.9361966625,-0.9056830875,0,TRUE,4.95818924,FALSE,1.3e-06,0,159
"mp-1980","YbNi2",0,6,2,81.5872921492711,11.8220628405041,13.5978820248785,3,227,4.8683229219555,59.9999860322549,-4.81183325666667,-4.81183325666667,-0.445206043333333,0,TRUE,5.5818137,TRUE,0.7748223,4,98
"mp-1981","Ba2Sn",0,12,2,538.896431180432,4.84839944449616,44.9080359317027,7,62,5.68966668,90,-3.22365336333333,-3.22365336333333,-0.607812785,0,TRUE,3.06096002,FALSE,0,0,106
"mp-1982","Al21Pt8",0,58,2,895.439268994266,7.88984541069791,15.438608086108,4,88,10.5996106478096,104.708272888545,-5.14365209362069,-5.14365209362069,-0.756543162931034,0,TRUE,8.43838919,FALSE,1e-07,0,559
"mp-1984","TaS2",0,6,2,121.148933363128,6.71836528481342,20.1914888938547,6,194,3.33852097,90,-7.75868831,-8.09402164333333,-1.38379585541667,0,TRUE,4.34410709,FALSE,0.0031039,0,89
"mp-1985","C3N4",3.1949,14,2,87.317128784004,3.5014298341479,6.236937770286,6,176,6.45052653366909,90,-8.17642929071429,-8.382715005,0.336138734642856,0.336138734642853,FALSE,9.36425411,FALSE,8.3e-06,0,33
"mp-1986","ZnO",0.6309,2,2,23.6814745923512,5.70833661654927,11.8407372961756,3,216,3.22335414007294,59.9999920928483,-4.54412986,-4.88762986,-1.784413699375,0.0071215599999998,FALSE,0.86055713,FALSE,0,0,38
"mp-1988","Y5Mg24",0,29,2,709.320007766718,2.40622542084255,24.4593106126454,3,217,9.7309328896989,109.47126469551,-2.49336711896552,-2.49336711896552,-0.0540886097701145,0.0160790444402461,FALSE,3.13274874,TRUE,1.7569888,1,168
"mp-1989","Ta5Si3",0,16,2,253.093674141493,12.9775375400265,15.8183546338433,4,140,6.53002846489997,115.737163895884,-10.06340222125,-10.03677722125,-0.591171941250002,0,TRUE,7.76619222,FALSE,0,0,320
"mp-1990","Mg3As2",1.431,40,2,944.614747646105,3.13269463071374,23.6153686911526,3,206,10.70595814075,109.471223514737,-3.449941571,-3.449941571,-0.626126179,0,TRUE,2.41329219,FALSE,0,0,57
"mp-1992","Pu5Ru3",0,16,2,332.023650752416,15.2359610883375,20.751478172026,4,140,8.16100258388894,96.9288682280874,-12.39044689125,-12.39044689125,0.0048530175000003,0.0713272574999983,FALSE,11.4651169,TRUE,40.0315739,14,88
"mp-1993","Tm5Mg24",0,29,2,693.978350458347,3.41687161236953,23.9302879468395,3,217,9.66026896375277,109.471235356306,-2.12620291862069,-2.12620291862069,-0.0301374594252873,0.0007499468965517,FALSE,3.11212797,FALSE,0.0062876,0,288
"mp-1994","HfB2",0,3,2,29.5694720068176,11.2377317261142,9.85649066893921,6,191,3.13267877,90,-8.78987715,-8.78987715,-1.01788629277778,0,TRUE,8.05107642,FALSE,1e-07,0,77
"mp-1995","PrC2",0,3,2,49.0319516991684,5.58556454008885,16.3439838997228,4,139,3.88151249947625,117.120716445361,-7.84824398,-7.84824398,-0.102165066666667,0.0149357012500015,FALSE,4.20835635,FALSE,1e-07,0,65
"mp-1996","NdIr3",0,4,2,70.639111978639,16.9462915912712,17.6597779946597,3,221,4.13379,90,-7.99688915,-7.99688915,-0.176026656875,0.358476772499999,FALSE,7.33396729,FALSE,0.0004692,0,214
"mp-1999","Sb2O3",3.3408,20,2,353.192293845205,5.48230941796336,17.6596146922602,3,227,7.93430228214414,59.9999975754691,-5.9514272965,-6.3636272965,-1.74401357375,0.0084873044999991,FALSE,2.98661866,FALSE,0,0,67
"mp-2000","CuSe2",0,6,2,117.140539040447,6.27883306558211,19.5234231734078,7,58,3.78076844,90,-3.78025423666667,-4.09492090333333,-0.397911028229166,0,TRUE,4.73578792,FALSE,0,0,63
"mp-2001","LaTl3",0,4,2,114.929123019999,10.8659779985792,28.7322807549998,3,221,4.86194488,90,-3.370739155,-3.370739155,-0.36475501875,0,TRUE,7.12357619,FALSE,9e-07,0,219
"mp-2002","Cu3Sb",0,4,2,60.3319368955619,8.59825011462324,15.0829842238905,3,225,4.40237893741645,60,-3.926173135,-3.974173135,0.1324821775,0.16304618875,FALSE,8.76482878,FALSE,2.5e-06,0,109
"mp-2004","Cu10Sb3",0,26,2,378.305814084387,8.78531496816278,14.5502236186303,6,176,10.0765322649632,90,-4.04006731692308,-4.08437500923077,0.0217073307692311,0.0499202642307725,FALSE,8.63186987,FALSE,0.0027042,0,102
"mp-2006","V3Ir",0,8,2,108.034905691042,10.6068476051028,13.5043632113802,3,223,4.76271615,90,-9.521162875,-9.521162875,-0.4986247775,0,TRUE,7.1156651,FALSE,2e-07,0,123
"mp-2008","FeAs2",0.282999999999999,6,2,89.8601732054284,7.60188367003951,14.9766955342381,7,58,2.87388077,90,-6.19353903333333,-6.19353903333333,-0.264119693333334,0,TRUE,6.37760901,FALSE,0,0,59
"mp-2011","UP",0,2,2,46.5766745871468,9.59041086198656,23.2883372935734,3,225,4.03857210514493,60.0000061713685,-9.32033237,-9.32033237,-0.967976111666665,0,TRUE,9.77841066,TRUE,2.5536981,1,107
"mp-2012","LiHg",0,2,2,35.9805307375431,9.57777236651447,17.9902653687715,3,221,3.3013319,90,-1.480105735,-1.480105735,-0.373804119166667,0,TRUE,2.44279771,FALSE,3e-07,0,83
"mp-2013","HoTl3",0,4,2,104.565115723013,12.3562489586034,26.1412789307533,3,221,4.71117179,90,-3.1335706875,-3.1335706875,-0.21598611,0,TRUE,6.26669011,FALSE,6e-07,0,229
"mp-2014","DyP",0,2,2,45.4301887798392,7.07174565617572,22.7150943899196,3,225,4.00516105913128,59.9999831571965,-6.621222265,-6.621222265,-1.61117759166667,0,TRUE,4.60700874,FALSE,5e-07,0,81
"mp-2015","Nd3Ge5",0,16,2,374.629221930673,7.05586291593266,23.4143263706671,7,43,5.94741168807632,82.9865782495314,-5.42007066,-5.42007066,-0.7426229634375,0,TRUE,5.1615949,FALSE,0,0,248
"mp-2016","PrNi2",0,6,2,96.8068551246739,8.86110853117965,16.1344758541123,3,227,5.15384031345719,60.0013869724611,-5.72404141166667,-5.72404141166667,-0.276981706666666,0.0122284500000002,FALSE,6.3925,FALSE,6e-07,0,87
"mp-2017","LuAs",0,2,2,45.7251075009539,9.07487822941311,22.8625537504769,3,225,4.01380709029712,60.0000120036949,-6.060075305,-6.060075305,-1.4700408425,0,TRUE,4.26575442,FALSE,4e-07,0,104
"mp-2018","AlFe3",0,4,2,48.1320652492022,6.71075113383922,12.0330163123005,3,225,4.08303655522761,59.999983241287,-7.485971815,-7.485971815,-0.197061949999999,0.0018312250000001,FALSE,6.4341514,TRUE,7.3221923,3,65
"mp-2019","LaRu2",0,6,2,113.267610884376,9.99966931411765,18.8779351473961,3,227,5.4309243784483,59.9999714765973,-7.96020462666667,-7.96020462666667,-0.131933898333332,0.0017812852380956,FALSE,8.58311035,FALSE,0.0031665,0,101
"mp-2025","HfBe5",0,6,2,60.8431913460132,6.10117601027686,10.1405318910022,6,191,4.51940161,90,-5.0050966,-5.0050966,-0.2293877075,0,TRUE,4.21067388,FALSE,2e-07,0,88
"mp-2026","PrTl3",0,4,2,111.75356466841,11.2044928853498,27.9383911671025,3,221,4.81674655,90,-3.3032798075,-3.3032798075,-0.33607100875,0,TRUE,6.12785475,FALSE,6.5e-06,0,221
"mp-2027","HfCo",0,2,2,31.6488585640109,12.4570208374847,15.8244292820054,3,221,3.16314682,90,-8.931260535,-8.931260535,-0.3985071225,0.0026220924999993,FALSE,5.50702346,TRUE,0.962684,2,99
"mp-2028","Be2Nb",0,6,2,70.2147654870067,5.24689736756554,11.7024609145011,3,227,4.63071268368422,60.0000050735045,-6.05002482333333,-6.05002482333333,-0.189981233333333,0.0217831695238075,FALSE,4.0798316,FALSE,5e-07,0,45
"mp-2030","RuS2",0.668399999999999,12,2,178.511531980831,6.14685338831279,14.8759609984026,3,205,5.63060972,90,-6.3988642125,-6.73419754583333,-0.885096787916667,0,TRUE,7.57206877,FALSE,0,0,60
"mp-2031","Be2Cu",0,6,2,53.0207649491503,5.10934824228532,8.83679415819172,3,227,4.21683835051243,60.0000101535876,-3.99971833333333,-3.99971833333333,-0.1403742,0,TRUE,5.98688926,FALSE,5e-07,0,33
"mp-2033","Ni3N",0,8,2,76.8136193263883,8.21850932860421,9.60170241579854,6,182,4.57972487,90,-6.38856926,-6.47881926,-0.0595930187499993,0,TRUE,8.15671476,FALSE,9e-07,0,63
"mp-2034","W2C",0,12,2,152.226582560083,16.5671784775396,12.6855485466736,7,60,4.756322,90,-11.7306571141667,-11.7306571141667,-0.0156817966666646,0.0654497191666667,FALSE,7.99016282,FALSE,1.51e-05,0,80
"mp-2038","Sm3S4",0,14,2,303.806686434234,6.33308446324992,21.7004776024453,3,220,7.33510526702841,109.471216243254,-6.39668651571429,-6.68411508714286,-2.29817824821429,0.0425560575000014,FALSE,6.3661121,FALSE,1.3e-06,0,172
"mp-2039","ScMn2",0,12,2,203.541096434017,5.05263246755157,16.961758036168,6,194,5.34235869059183,89.9999868310707,-8.36173102166667,-8.36173102166667,-0.142897791954022,0,TRUE,5.60004222,TRUE,9.531692,12,46
"mp-2041","HoZn2",0,6,2,115.897973665936,8.47472347802853,19.3163289443226,7,74,4.43070764534787,77.5097511971016,-2.76049044166667,-2.76049044166667,-0.393191745,0,TRUE,3.01919893,FALSE,0,0,97
"mp-2042","HoNi3",0,12,2,166.47021970904,10.2047313610441,13.8725183090867,2,166,8.48230014322684,33.598189300679,-5.90620658833333,-5.90620658833333,-0.425501860833333,0,TRUE,6.26444842,TRUE,2.2046725,12,123
"mp-2044","Zr5Al3",0,16,2,334.248483451476,5.33625024482056,20.8905302157172,6,193,8.34531183155189,90,-7.101201525,-7.101201525,-0.354297695,0.0585780467500001,FALSE,4.70845523,FALSE,0.0030233,0,186
"mp-2045","Tb4Sb3",0,14,2,391.048227330934,8.50109323335871,27.9320162379239,3,220,7.97904177048986,109.471218036387,-5.42671881071429,-5.509004525,-1.091223365,0.0151227492857142,FALSE,5.83219235,FALSE,0.0002189,0,297
"mp-2049","ZrMo2",0,6,2,109.924336146296,8.55325159817336,18.3207226910493,3,227,5.37696956724055,59.9995452861651,-10.21899568,-10.21899568,-0.139328730000001,0,TRUE,6.28833499,FALSE,2e-07,0,82
"mp-2050","HoSb",0,2,2,58.4864211146769,8.13967528364613,29.2432105573385,3,225,4.35702463154994,60.0000033676693,-5.46163307,-5.55763307,-1.201928015,0,TRUE,5.38571495,FALSE,0,0,118
"mp-2051","LaCu2",0,3,2,61.6729370960706,7.16196132938679,20.5576456986902,6,191,4.30028631,90,-4.59386215333333,-4.59386215333333,-0.215722005,0,TRUE,7.4725055,FALSE,1.87e-05,0,86
"mp-2052","ScAs",0,2,2,41.1924527941618,4.83246998855633,20.5962263970809,3,225,3.87653945294201,60.0000040608704,-6.86948376,-6.86948376,-1.373690005,0,TRUE,5.2176449,FALSE,2e-07,0,54
"mp-2053","Nb3Sb",0,8,2,149.085536609089,8.92120419530795,18.6356920761361,3,223,5.30247347,90,-8.88564846,-8.93364846,-0.32541937,0,TRUE,6.95081724,FALSE,6e-07,0,133
"mp-2054","TbHg",0,2,2,51.1188750825558,11.6784511152338,25.5594375412779,3,221,3.71130884,90,-2.95477561,-2.95477561,-0.4857523775,0,TRUE,3.79519776,FALSE,6.1e-06,0,145
"mp-2056","Ni3Se2",0,5,2,74.4062560204457,7.45394822983449,14.8812512040891,2,155,4.20632373120028,90.7015488313234,-5.132632126,-5.321432126,-0.454985526937499,0,TRUE,6.12520908,FALSE,1.8e-06,0,90
"mp-2057","DyB2",0,3,2,36.2808668364001,8.42708018524461,12.0936222788,6,191,3.29454381,90,-6.54985924,-6.54985924,-0.561335779444445,0,TRUE,4.94812968,FALSE,3.1e-06,0,71
"mp-2058","Ni3B",0,16,2,146.314008213815,8.48422219013345,9.14462551336343,7,62,4.33863529,90,-6.2677976275,-6.2677976275,-0.262847174791666,0,TRUE,8.20622743,FALSE,1e-07,0,61
"mp-2059","NbAs",0,4,2,70.9603258440032,7.85466847689553,17.7400814610008,4,109,3.46654443709783,105.729466738974,-8.0567068425,-8.0567068425,-0.67649512,0,TRUE,6.17418946,FALSE,1e-07,0,74
"mp-2060","LuTl3",0,4,2,103.028787826995,12.7022643777508,25.7571969567488,3,221,4.68798482,90,-3.0452234475,-3.0452234475,-0.1430034575,0,TRUE,6.29778907,FALSE,2.4e-06,0,233
"mp-2061","ThTl3",0,4,2,110.832330628707,12.6629803617649,27.7080826571768,3,221,4.80347449,90,-3.787647755,-3.787647755,-0.1622008325,0,TRUE,7.46357339,FALSE,7.4e-06,0,252
"mp-2062","LaSi2",0,6,2,131.049307883239,4.94366745832854,21.8415513138731,4,141,4.38834294800748,107.059895086072,-5.926625045,-5.87929171166667,-0.617077323333334,0,TRUE,8.95283268,FALSE,1.23e-05,0,71
"mp-2063","Pr2O3",3.7452,5,2,79.3778757475414,6.89950690018361,15.8755751495083,2,164,3.88935641,90,-8.178496116,-8.590696116,-3.71032058725,0.0255394397499983,FALSE,2.40624766,FALSE,0,0,75
"mp-2064","RbF",5.905,2,2,38.2879907574116,4.53066896751155,19.1439953787058,3,221,3.37044718,90,-3.990078025,-4.221078025,-2.775071505,0.0994669699999999,FALSE,-1.69780554,FALSE,0,0,46
"mp-2065","MnS",0,4,2,68.9305749938858,4.19181053250963,17.2326437484715,3,225,3.65999179929749,106.868773361928,-7.2000336725,-7.4515336725,-0.802301093028017,0,TRUE,6.12940565,TRUE,0,2,41
"mp-2066","EuCu5",0,6,2,90.8260930782403,8.58723754280339,15.1376821797067,6,191,5.10691850000041,90,-5.23833947166667,-5.23833947166667,-0.112833613333333,0,TRUE,5.38771119,TRUE,7.3044963,1,179