"material_id","formula_pretty","band_gap","nsites","nelements","volume","density","density_atomic","crystal_symmetry","symmetry_number","sides_abc","angles_abc","uncorrected_energy_per_atom","energy_per_atom","formation_energy_per_atom","energy_above_hull","is_stable","efermi","is_magnetic","total_magnetization","num_magnetic_sites","atomic_number"
"mp-7607","TiHgO3",1.147,10,3,118.34433484931,8.31937484330855,11.834433484931,2,167,5.44653272445287,60.7738290768325,-6.447981421,-6.860181421,-2.25233371791667,0.104633818500004,FALSE,3.06325817,FALSE,0,0,118
"mp-7608","Li2PdO2",1.1973,5,3,51.3269658071193,4.92726239117284,10.2653931614239,7,71,5.1900112683478,146.498439441266,-5.136262696,-5.411062696,-1.63284170283333,0,TRUE,2.73987329,FALSE,0,0,57
"mp-7609","SbOF",3.3084,12,3,198.173908111983,5.25402074749224,16.5144923426652,7,62,4.07475367,90,-5.48019578833333,-5.86319578833333,-2.20080614875,0.0009113329166678,FALSE,2.63656431,FALSE,0,0,68
"mp-7610","Li2CaSiO4",5.1897,8,4,84.72436340876,2.86234399646485,10.590545426095,4,121,4.87726338793088,117.640625231643,-6.56694499,-6.91044499,-3.03100517895833,0,TRUE,2.02386337,FALSE,0,0,61
"mp-7611","Li2CaGeO4",4.1135,8,4,90.9002099491585,3.48178250608243,11.3625262436448,4,121,4.99718008216154,93.7758181416777,-6.04055942,-6.38405942,-2.60490588083333,0,TRUE,0.91971225,FALSE,0,0,79
"mp-7614","Si(Ag4S3)2",0.8824,60,3,1190.17262620539,6.04639368278759,19.8362104367565,7,33,7.47066132,90,-3.72312604883333,-3.92432604883333,-0.397361698305555,0,TRUE,2.73132859,FALSE,0,0,187
"mp-7615","Rb3TlF6",2.9408,10,3,240.273041798995,3.97231355574987,24.0273041798995,4,139,6.96736507073506,90.5390990140366,-4.030561029,-4.307761029,-2.63044911208333,0.0368019909999999,FALSE,-1.88145501,FALSE,0,0,200
"mp-7617","Rb3YF6",5.0564,10,3,248.243414616743,3.07232739752854,24.8243414616743,4,139,6.99979495443424,92.8925680990092,-5.297994743,-5.575194743,-3.48750002941667,0.0365601700000004,FALSE,-2.96895216,FALSE,0,0,158
"mp-7618","Cs3YF6",5.3387,10,3,270.088619768046,3.69879066901882,27.0088619768046,4,139,7.23195143510256,119.333889363724,-5.287208121,-5.564408121,-3.50225291754598,0.0339035890000003,FALSE,-2.30864761,FALSE,0.0010419,0,194
"mp-7621","KTcO4",3.1886,12,3,200.151905765719,3.33674162936979,16.6793254804766,4,88,5.63457647395323,112.195305007953,-6.90963183166667,-7.36763183166667,-2.15799970883333,0,TRUE,-1.702714,FALSE,0,0,86
"mp-7622","KSO4",3.5193,12,3,197.95099919038,2.26763144055626,16.4959165991983,5,2,5.161798,104.923235922552,-5.65817499333333,-5.96817499333333,-1.79590771685417,0.147415913020831,FALSE,-0.84627194,FALSE,0.0019374,0,59
"mp-7623","MgAs4",0.9186,20,2,469.739623655523,4.5812645972311,23.4869811827761,4,92,5.42958383,90,-4.2729072595,-4.2729072595,-0.2255565255,0,TRUE,3.51291644,FALSE,0,0,111
"mp-7624","Er2Si2O7",4.918,22,3,276.468260769931,6.03850688872126,12.566739125906,1,14,10.71354026,83.8665597393906,-8.22602048227273,-8.66320230045454,-3.69839369511364,0.0030829440909165,FALSE,1.86459216,FALSE,0,0,130
"mp-7625","Y3ReB7",0,22,3,262.10102941949,6.69790215158188,11.9136831554313,7,63,8.0979090687002,90,-7.75136532318182,-7.75136532318182,-0.605939603106059,0,TRUE,5.63158325,FALSE,0.4827382,0,183
"mp-7631","SiC",2.023,12,2,123.765766628829,3.2277733174093,10.3138138857358,6,186,3.07662093,90,-7.53056515583333,-7.53056515583333,-0.203573394583334,0.0002028046666673,FALSE,8.07467192,FALSE,0,0,20
"mp-7632","NiMoP",0,9,3,109.191173874373,8.4679356198612,12.1323526527082,6,189,5.81018687073123,90,-7.90448482777778,-7.90448482777778,-0.558121728888889,0,TRUE,10.34358763,FALSE,2.5e-06,0,85
"mp-7634","Cu3As",0,24,2,324.229736075999,8.16036361712312,13.5095723365,2,165,7.03118180026694,90,-4.17112881666667,-4.17112881666667,0.0680557870833329,0.0680557870833329,FALSE,7.32104367,FALSE,6.7e-05,0,91
"mp-7638","LiTa3O8",3.4495,24,3,275.421926046804,8.17276909669594,11.4759135852835,1,15,7.4652975728555,89.4265428765808,-9.2176792325,-9.6756792325,-3.25436544527778,0,TRUE,1.47092128,FALSE,0,0,205
"mp-7639","Na2CuP",0.6575,8,3,154.577587405247,3.0186080831785,19.3221984256559,7,63,5.17933139,102.455194933515,-3.4061099775,-3.4061099775,-0.366720036609196,0,TRUE,2.99861287,FALSE,0,0,55
"mp-7640","Sc2Si2O7",3.7458,22,3,205.838125095464,4.16394812387276,9.35627841343018,3,227,6.62745730162028,60,-8.37168838090909,-8.80887019909091,-3.52319790375,0.0850590054545463,FALSE,5.59436988,FALSE,1.34e-05,0,83
"mp-7642","K2AgAs",1.0719,8,3,238.119410488593,3.64000660141107,29.7649263110741,7,63,6.01103224,103.484370489215,-2.8280287525,-2.8280287525,-0.399910676916666,0,TRUE,1.18862841,FALSE,0,0,99
"mp-7643","K2AgSb",1.1871,8,3,274.924135571645,3.71851751033423,34.3655169464556,7,63,6.28888665,103.238405506054,-2.704807905,-2.752807905,-0.457219120666667,0,TRUE,1.5618416,FALSE,0,0,117
"mp-7644","LuAsO4",3.5147,12,3,148.504490029066,7.01958974391419,12.3753741690889,4,141,5.79207698964598,106.750922959164,-7.22898518166667,-7.68698518166667,-2.85918122,0,TRUE,1.29857668,FALSE,0,0,128
"mp-7645","KAl(SO4)2",5.5409,12,4,173.68054143366,2.46866776352164,14.473378452805,2,164,5.0165627520048,90,-6.2614056225,-6.7194056225,-2.3275402724375,0,TRUE,0.37896162,FALSE,0.0025914,0,72
"mp-7646","Cs2PrO3",0,12,3,312.133205178287,4.8381583336585,26.0111004315239,7,36,7.11015468447937,90,-5.40883275916667,-5.75233275916667,-2.18370332035201,0.0805509173958345,FALSE,0.73721135,TRUE,2.0003829,6,130
"mp-7648","SiO2",5.7192,12,2,185.711108865656,2.14897919782473,15.4759257388046,7,20,5.00538596,90,-7.9088051775,-8.3668051775,-3.26057336,0.0074587291666645,FALSE,-0.88232742,FALSE,0,0,22
"mp-7650","RbScO2",3.4524,8,3,117.661451048304,4.58449091131101,14.707681381038,6,194,3.25757354,90,-6.9593077375,-7.3028077375,-3.0012125875,0,TRUE,2.08813434,FALSE,0,0,66
"mp-7651","ThSiO4",4.6509,24,3,296.36422744028,7.26424849773969,12.3485094766783,1,14,6.50506897078994,90,-8.771158035,-9.229158035,-3.7915028475,0.0356769725000329,FALSE,4.17005666,FALSE,0,0,128
"mp-7652","Na5TlO4",1.1596,80,3,1227.54780193858,4.14832900702904,15.3443475242323,7,61,10.67914988,90,-4.09309341125,-4.36789341125,-1.49169096535919,0,TRUE,0.82361574,FALSE,0,0,149
"mp-7655","BaSi2",0,3,2,77.2932487432523,4.15703820881274,25.7644162477508,2,164,4.06202504,90,-4.60286366333333,-4.55553033,-0.298993330000001,0.0138999220833326,FALSE,5.08186397,FALSE,3e-07,0,70
"mp-7656","Na5GaO4",2.2018,80,3,1077.84706625699,3.06481573012727,13.4730883282124,7,61,5.90413663,90,-4.4830564195,-4.7578564195,-1.81510868602586,0,TRUE,0.51291015,FALSE,0,0,99
"mp-7657","K3SiTe3",1.7179,14,3,528.411512552226,3.31962558565841,37.7436794680161,1,12,8.41251753308249,105.288797245562,-3.41603700571429,-3.59689414857143,-0.998832355571428,0,TRUE,1.68595008,FALSE,0,0,156
"mp-7660","BaRhF6",0,8,3,115.95134431408,5.07282601246451,14.49391803926,2,166,4.93487806008721,98.3342901855873,-5.0368176625,-5.3833176625,-2.789298085625,0,TRUE,-0.32870053,TRUE,1,1,146
"mp-7661","Li2RhF6",0,18,3,189.461428043833,4.04531681722148,10.5256348913241,4,136,4.58665343,90,-4.68609108111111,-4.99409108111111,-2.47731025796296,0,TRUE,-0.81663427,TRUE,1.9998867,2,93
"mp-7664","Na6ZnO4",2.3289,22,3,283.649683043542,3.13017924181566,12.8931674110701,6,186,7.51009813911204,89.9999946695278,-3.93701730863636,-4.18683549045454,-1.55214001630094,0,TRUE,1.06484654,FALSE,0,0,109
"mp-7667","K2S3",1.2855,10,2,272.406599473851,2.12611636609544,27.2406599473851,7,36,6.22221904042655,90,-3.716305083,-4.018105083,-1.092075584075,0,TRUE,1.63117306,FALSE,0,0,51
"mp-7670","K2Se3",0.644,10,2,310.286741658601,3.37234520865967,31.0286741658601,7,36,6.51095041446285,90,-3.340785547,-3.623985547,-1.08227908160625,0,TRUE,1.0493969,FALSE,0,0,87
"mp-7680","K2CaCu(NO2)6",0.2538,22,5,298.015674026239,2.55115370044768,13.5461670011927,7,69,7.57173063677103,60.9193284653131,-6.14122154909091,-6.51594882181818,-1.16572888868182,0.129655556136359,FALSE,1.41917734,TRUE,1.0009515,1,83
"mp-7684","Tl3AsSe3",0.8814,7,3,210.469758580472,7.29757144598528,30.0671083686389,2,160,6.30265694749387,106.648964586903,-3.49149277285714,-3.69377848714286,-0.517381018861607,0,TRUE,2.96126419,FALSE,0,0,263
"mp-7685","BaRhO3",0,20,3,278.499545689458,6.87424227366102,13.9249772844729,6,194,5.7715105176659,89.9999484100593,-6.4105054355,-6.8227054355,-1.99803564675,0.0154937257962961,FALSE,3.50909208,TRUE,4.0182156,4,117
"mp-7688","Li2CdGeO4",2.455,16,4,195.916846890065,4.45705961519044,12.244802930629,7,31,5.2407,90,-5.4190412825,-5.7625412825,-2.11872650833333,0,TRUE,-0.03482247,FALSE,0.0004402,0,107
"mp-7691","YB4Mo",0.2774,24,3,254.256902513893,5.95857344088016,10.5940376047455,7,55,3.62331518,90,-7.9577571575,-7.9577571575,-0.619475773055555,0,TRUE,6.86930065,FALSE,0,0,96
"mp-7692","Al(CrB)2",0,5,3,46.4754839027112,5.45214732723202,9.29509678054223,7,65,2.90835496730758,90,-7.74785304,-7.74785304,-0.465762177666666,0,TRUE,8.57388426,FALSE,0.0010658,0,42
"mp-7693","BaTm2F8",7.2347,11,3,148.073925765357,7.03338740787272,13.4612659786688,1,12,4.21171885355148,112.977214353207,-6.47433130909091,-6.81033130909091,-4.43192426121212,0,TRUE,-1.04339045,FALSE,0,0,188
"mp-7698","NdS2",0,6,2,129.974167573821,5.32428640005028,21.6623612623035,4,129,3.973267,90,-6.00788053,-6.34321386333333,-1.99619814125,0.0776446158333339,FALSE,5.52022771,FALSE,9.09e-05,0,76
"mp-7700","SiB6",0.0465999999999997,7,2,70.6267066573499,2.18542820916041,10.0895295224786,3,221,4.133548,90,-6.0443017,-6.0443017,0.455936679285714,0.478924079642857,FALSE,5.36431754,FALSE,1e-07,0,39
"mp-7701","BaSi2",0,3,2,75.650786134212,4.24729212646818,25.216928711404,6,191,4.12294137,90,-4.58074481,-4.53341147666667,-0.276874476666667,0.0360187754166663,FALSE,4.93350866,FALSE,2e-07,0,70
"mp-7703","DyTaO4",4.0284,12,3,146.870692178944,9.21326272807727,12.2392243482454,1,13,5.11541750617505,90,-9.32185720833333,-9.77985720833333,-3.73797065583333,0,TRUE,2.29235155,FALSE,0,0,163
"mp-7704","Ca(AlSi)2",0,5,3,105.227233649517,2.3704226920621,21.0454467299033,2,164,4.13760225,90,-4.369010952,-4.340610952,-0.271133432000001,0,TRUE,5.55798565,FALSE,9e-07,0,47
"mp-7705","NbFeB",0,3,3,34.7868671082138,7.61665500734651,11.5956223694046,6,187,3.68502675378321,90,-8.54028398,-8.54028398,-0.123377973055556,0.416574135555555,FALSE,6.1612431,FALSE,5.84e-05,0,72
"mp-7707","Zr(SiNi)2",0,5,3,67.8218597560889,6.48287328902382,13.5643719512178,4,139,3.75002622061241,109.918366561781,-7.01390644,-6.98550644,-0.793784429999999,0,TRUE,8.09529868,FALSE,1e-07,0,82
"mp-7708","TlCdS2",0,4,3,93.7130641676479,6.74974921784306,23.428266041912,2,164,3.94370549678979,90,-3.1655504175,-3.4170504175,-0.527442257395833,0.168029487083333,FALSE,3.65164823,FALSE,0.0012956,0,145
"mp-7709","ZnF2",3.5604,12,2,136.177582791835,5.04369009113507,11.3481318993196,7,60,4.68134707,90,-3.98351444416667,-4.29151444416667,-2.59728059583333,0.0057201491666667,FALSE,-1.67782382,FALSE,0,0,39
"mp-7711","Ag2O",0,3,2,44.6676483015357,8.61487818727574,14.8892161005119,2,164,3.21546802333424,90,-3.51195577,-3.74095577,-0.203688864027777,0.119290208333333,FALSE,2.11306752,FALSE,2.42e-05,0,55
"mp-7714","Li4UO5",2.0777,10,3,98.449544217735,5.83240541084862,9.8449544217735,4,87,4.42489325361537,79.6108963898105,-6.917046774,-7.260546774,-2.89449227070833,0,TRUE,2.64768663,FALSE,0,0,133
"mp-7715","AgF2",0,6,2,88.2768771755126,5.4876101041836,14.7128128625854,1,14,3.68139286257829,90,-3.35058113166667,-3.65858113166667,-1.44007648555556,0,TRUE,-1.46230837,FALSE,1e-07,0,56
"mp-7716","SbTe",0,12,2,400.970002180319,6.19605485790677,33.41416684836,2,164,4.31196339,90,-3.738610565,-3.949610565,-0.313456998333334,0.0087391017857134,FALSE,6.16646289,FALSE,0,0,103
"mp-7719","NaTm(SO4)2",5.7586,24,4,320.115898219685,3.9843610969453,13.3381624258202,1,11,6.850335,82.7818522943711,-6.55277500625,-7.01077500625,-2.54037749453903,0.0013368186458357,FALSE,0.66101337,FALSE,2.6e-06,0,120
"mp-7720","Ce2Ga10Ni",0,13,3,246.940528414903,6.96757446747535,18.9954252626848,4,139,13.4627949726244,161.447204488994,-4.11948618384615,-4.11948618384615,-0.432772705769231,0.007391845384614,FALSE,5.36618216,TRUE,1.6600916,2,86
"mp-7723","NaAlF4",5.7762,6,3,80.6819258188625,2.59252205109622,13.4469876364771,4,123,3.617876,90,-5.32145023833333,-5.62945023833333,-3.51044740609195,0.1040207225,FALSE,-1.50400975,FALSE,0,0,51
"mp-7724","Li2UO4",1.9835,7,3,100.365071882263,5.2267030002407,14.3378674117518,4,139,6.11802145112961,138.274368406716,-7.55153843857143,-7.94410986714286,-2.95896549738095,0.184952928928568,FALSE,1.54750871,FALSE,2.05e-05,0,119
"mp-7725","Na2UO4",2.0224,7,3,112.454530521306,5.13876707650734,16.0649329316151,4,139,6.69060860353855,142.053995501162,-7.39325651714286,-7.78582794571429,-2.96822573972906,0.0607747642857106,FALSE,1.83154379,FALSE,0.0097775,0,127
"mp-7726","Rb2UO4",1.8996,7,3,132.173938662417,5.94195851787749,18.8819912374882,4,139,4.35129085784054,106.569982826327,-7.37140619428571,-7.76397762285714,-3.04408719428571,0,TRUE,1.79131837,FALSE,0,0,153
"mp-7733","Ba2Ti6O13",0,21,3,268.706111614876,4.7574765001397,12.7955291245179,1,12,7.77652290037716,82.1585793953106,-8.56569982285714,-8.99098553714286,-3.49013528827381,0,TRUE,5.04404939,TRUE,1.2895558,2,166
"mp-7735","Pr5(CoB3)2",0,13,3,216.718313074715,6.79844513121159,16.6706394672858,2,166,8.9697149600736,35.4312210593812,-6.40708521615385,-6.40708521615385,-0.391891755384616,0.0005433146153848,FALSE,4.931632,FALSE,9e-07,0,273
"mp-7736","LuNiSn2",0,48,3,1022.90078742679,9.17681265661016,21.3104330713914,7,62,4.408832,90,-5.09416884166667,-5.09416884166667,-0.514111114166666,0,TRUE,7.35774069,FALSE,0.0012576,0,149
"mp-7738","LaSeF",1.7261,6,3,126.936589096647,6.19713697545978,21.1560981827745,6,194,4.22076396,90,-6.439299505,-6.75063283833333,-3.30283365494792,0,TRUE,5.41403732,FALSE,0,0,100
"mp-7739","Ba2ZnF6",4.7324,9,3,144.136909601287,5.23095328594568,16.0152121779208,4,139,4.200414,103.981519966195,-5.15654236333333,-5.46454236333333,-3.62381266388889,0.0267195261111119,FALSE,-0.5430189,FALSE,0,0,131
"mp-7744","LiSO3F",5.7916,12,4,175.657572633373,2.0041431876357,14.6381310527811,1,12,5.77250667945443,88.779086631685,-5.6042238025,-6.0247238025,-2.22523749670139,0,TRUE,-1.63374801,FALSE,0.0004728,0,44
"mp-7748","NaAlO2",4.7292,4,3,39.0547490746711,3.48522445165148,9.76368726866776,2,166,2.89984380025701,75.0437876209764,-6.2664463825,-6.6099463825,-2.86957674601293,0.0650301043750003,FALSE,4.0512505,FALSE,0,0,32
"mp-7751","PuPt5",0,6,2,109.667693446101,18.4639111571043,18.2779489076836,6,191,5.36299596863901,90.0111484683722,-7.95656202166667,-7.95656202166667,-0.519311199999999,0,TRUE,8.26343464,TRUE,4.9169868,1,312
"mp-7752","Sr3SbN",0.2577,5,3,140.199967486285,4.72136492046329,28.0399934972569,3,221,5.19496514,90,-4.426257728,-4.536857728,-1.030062423,0,TRUE,3.7761158,FALSE,0,0,134
"mp-7753","MgPd3",0,4,2,60.9784212625096,9.35581952770532,15.2446053156274,3,221,3.93603295,90,-4.771199715,-4.771199715,-0.486218345,0.0099469199999999,FALSE,4.76732088,FALSE,0.0001125,0,104
"mp-7754","Si2Ru",0,3,2,43.7892342202477,5.96276294894689,14.5964114067492,4,123,2.879987,90,-7.12463646333333,-7.12463646333333,-0.416290263333334,0.127437294583332,FALSE,9.55700682,FALSE,7.5e-06,0,58
"mp-7755","Se",0,1,1,22.201380659083,5.90576625445562,22.201380659083,3,221,2.81056302,90,-3.31467609,-3.31467609,0.18123538765625,0.18123538765625,FALSE,5.1911322,FALSE,0,0,34
"mp-7756","SrLiSb",0.6858,12,3,330.98502200207,4.3410963946729,27.5820851668392,7,62,4.82725606,90,-3.53156821833333,-3.59556821833333,-1.019762365,0,TRUE,3.68770508,FALSE,0,0,92
"mp-7759","BaSn3",0,8,2,264.176591450443,6.20346126572647,33.0220739313054,6,194,7.34786896008696,90.0002016980453,-3.93009453875,-3.93009453875,-0.4431719125,0,TRUE,5.99876432,FALSE,3e-07,0,156
"mp-7760","AlSn",0,2,2,50.4721122736859,4.79327059280799,25.236056136843,6,187,4.19810561567536,90,-3.670483525,-3.670483525,0.2070903175,0.2070903175,FALSE,7.01540374,FALSE,0.0014565,0,63
"mp-7761","Sb",0,1,1,26.2131121147992,7.71320993340073,26.2131121147992,3,229,3.74124463129082,70.5557146555379,-3.89047667,-3.89047667,0.23852457,0.23852457,FALSE,7.9843997,FALSE,0,0,51
"mp-7762","CdGe2O5",1.4703,16,3,180.994983867389,6.1962393027739,11.3121864917118,5,2,5.36507996043025,105.272573543043,-5.868989309375,-6.298364309375,-1.93556568109375,0.012607815859388,FALSE,2.9663059,FALSE,0,0,112
"mp-7765","Ba3SiO5",3.5341,18,3,304.926453752012,5.66422327900129,16.9403585417785,4,140,7.67921352110427,122.900623716995,-6.84790257944444,-7.22956924611111,-3.23893742319444,0.0041164497222174,FALSE,2.74264082,FALSE,0,0,158
"mp-7767","RbAgF3",0,10,3,165.150166112841,5.03402161698113,16.5150166112841,4,140,6.15212749387869,90.3509954290309,-3.764366687,-4.041566687,-2.13206129133333,0,TRUE,-0.54359696,FALSE,7.3e-06,0,102
"mp-7768","Th2SeN2",1.3592,5,3,101.645721467828,9.32897148281163,20.3291442935655,2,164,4.04042189,90,-8.93333776,-9.17213776,-2.17281419446875,0,TRUE,5.48956657,FALSE,0,0,131
"mp-7769","Th2SN2",1.424,5,3,97.2198971668908,8.95268440678198,19.4439794333782,2,164,4.01809993,90,-9.1254457,-9.3704457,-2.243014456625,0,TRUE,6.07287401,FALSE,0,0,113
"mp-7770","Sr(ZnAs)2",0.254,5,3,111.918061886625,5.46422364527572,22.383612377325,2,164,4.21587802,90,-3.37415843,-3.37415843,-0.668714933333333,0,TRUE,3.21587379,FALSE,0,0,101
"mp-7771","Sr(CdAs)2",0.1348,5,3,129.773940696715,5.91522943966843,25.954788139343,2,164,4.48296996,90,-3.195508164,-3.195508164,-0.624806207333333,0,TRUE,2.79757789,FALSE,0,0,119
"mp-7773","Na2AsAu",0.4175,8,3,178.837350980322,5.9029251274477,22.3546688725403,7,63,5.6365564188987,90,-3.13398489875,-3.13398489875,-0.489472150775862,0,TRUE,2.27166161,FALSE,0,0,123
"mp-7774","Na2SbAu",0.3618,8,3,205.581470798496,5.89166656974256,25.697683849812,7,63,5.90723178,101.79418642574,-2.97329037,-3.02129037,-0.509306913275862,0,TRUE,2.95759136,FALSE,0,0,141
"mp-7775","U2AlCu3",0,12,3,197.413719391381,11.6696889873955,16.4511432826151,6,194,5.45124418513242,90,-6.4091663725,-6.4091663725,0.0285029374999995,0.154811764166667,FALSE,9.93491479,FALSE,0.785332,0,163
"mp-7777","Li2PrP2",0,5,3,104.676447557083,3.43821894046621,20.9352895114167,2,164,4.20061225682697,90,-4.727596214,-4.727596214,-0.842524913666666,0.144864222750001,FALSE,2.83915004,FALSE,4.27e-05,0,77
"mp-7778","Li2PrAs2",0,5,3,113.526705073636,4.45582163303857,22.7053410147272,2,164,4.30928810372955,90,-4.45784374,-4.45784374,-0.874446080333333,0.104025475125002,FALSE,2.21483018,FALSE,1.02e-05,0,95
"mp-7779","Li2NdAs2",0,5,3,111.866385523804,4.57144980985012,22.3732771047608,2,164,4.28640284625197,90,-4.462304938,-4.462304938,-0.881458942833333,0.114161481,FALSE,2.22646639,FALSE,3.03e-05,0,96
"mp-7781","CaZrS3",1.1878,20,3,450.795609765923,3.35200829689053,22.5397804882961,7,62,6.5877,90,-6.3234949135,-6.6252949135,-2.032764891375,0.0365724825000022,FALSE,3.42215916,FALSE,6.06e-05,0,92
"mp-7783","La(BC)2",0,10,3,117.359868071426,5.2224088756708,11.7359868071426,4,131,3.836646,90,-7.664476389,-7.664476389,-0.314052062666666,0.123652992000001,FALSE,8.61714281,FALSE,6.96e-05,0,68
"mp-7784","SbAsO4",3.0829,12,3,180.154819204053,4.80551114161143,15.0129016003377,1,11,6.97658234,85.1272052849793,-6.03454809416667,-6.49254809416667,-1.7300690125,0.0104231422222111,FALSE,1.76944183,FALSE,0,0,108
"mp-7785","CsCu4S3",0,8,3,152.665918222051,5.25665925968539,19.0832397777564,4,123,3.969382,90,-4.11350205625,-4.30212705625,-0.589429724663254,0.0536462604166665,FALSE,5.00645039,FALSE,0.0002745,0,174
"mp-7786","CsCu3S2",1.6846,6,3,162.599175812084,3.95910316733466,27.0998626353473,2,164,5.35939159,90,-4.11900930333333,-4.28667597,-0.709022284030173,0,TRUE,1.97499436,FALSE,0,0,129
"mp-7787","HfSO",2.8691,12,3,181.288572764255,8.3006319962446,15.1073810636879,3,198,5.65965741,90,-8.90939008166667,-9.30605674833334,-2.95928087895833,0.0072266270833321,FALSE,4.43395256,FALSE,0,0,96