"material_id","formula_pretty","band_gap","nsites","nelements","volume","density","density_atomic","crystal_symmetry","symmetry_number","sides_abc","angles_abc","uncorrected_energy_per_atom","energy_per_atom","formation_energy_per_atom","energy_above_hull","is_stable","efermi","is_magnetic","total_magnetization","num_magnetic_sites","atomic_number"
"mp-4954","La(SiPd)2",0,5,3,91.4500337288915,7.40689977603115,18.2900067457783,4,139,4.29360971879142,111.566191308125,-6.169246112,-6.140846112,-0.911564755,0,TRUE,7.58221723,FALSE,1.88e-05,0,117
"mp-4955","AlVCo2",0,4,3,46.7910126135807,6.94825730108754,11.6977531533952,3,225,4.04475724302159,59.9999982263195,-7.19253093,-7.19253093,-0.4310015575,0,TRUE,7.01778873,TRUE,2.0007333,2,63
"mp-4957","CaNbO3",0,20,3,253.673570573561,4.73882468377858,12.6836785286781,7,62,5.558866,90,-8.134965728,-8.547165728,-3.15777151725,0.0589310007500234,FALSE,5.96437523,FALSE,0.0079962,0,77
"mp-4959","Ca(GaO2)2",2.9772,28,3,299.566503703438,5.39949727839079,10.6988037036942,7,62,3.030829,90,-6.17510312428571,-6.56767455285714,-2.58931072857143,0.0505421169047499,FALSE,2.92816451,FALSE,0.0013974,0,59
"mp-4960","Li(PrGe3)2",0,9,3,192.96007981105,6.23559269275814,21.4400088678945,7,65,11.0198153777984,90,-4.78003156444445,-4.78003156444445,-0.423486952592593,0.0948122722222217,FALSE,3.69430348,FALSE,0.0332903,0,126
"mp-4961","Na2HgO2",1.6474,5,3,76.2300357864942,6.06812792522249,15.2460071572988,4,139,3.38009193643158,103.795603071124,-3.639787438,-3.914587438,-1.34616576312069,0,TRUE,0.69060179,FALSE,0,0,99
"mp-4962","CoSbS",0,6,3,101.910265328066,6.93341918793937,16.9850442213443,7,31,3.62359817,90,-5.48122831833333,-5.712894985,-0.588305351041666,0.0101917762499974,FALSE,8.01912311,FALSE,0,0,94
"mp-4964","YSbPt",0.1098,3,3,71.3535151805803,9.44261085788052,23.7845050601934,3,216,4.65561184688264,60.0000036675181,-6.76909676,-6.83309676,-1.27756153555556,0,TRUE,6.30030133,FALSE,0,0,168
"mp-4967","MgSO4",5.5304,24,3,270.846077752073,2.95186260494189,11.2852532396697,7,62,4.74587934,90,-6.20305096708333,-6.66105096708333,-2.40713684010417,0.0010758370833325,FALSE,1.62307002,FALSE,0,0,52
"mp-4969","TbCoSi2",0,8,3,129.118060884828,7.04838287930934,16.1397576106036,7,63,3.95930328,104.039593404013,-6.43758407625,-6.40208407625,-0.753754087500001,0,TRUE,6.62461559,FALSE,1e-07,0,106
"mp-4971","K4Sn3Se8",1.4545,30,3,963.801207599252,3.94270955202777,32.1267069199751,7,68,14.5991480278959,90,-3.75435585866667,-4.006089192,-1.04358231371667,0,TRUE,1.19802978,FALSE,0,0,395
"mp-4972","LuInCu2",0,4,3,68.1234838555925,10.1615552418666,17.0308709638981,3,225,4.5842749976997,59.9999904653541,-4.1833017125,-4.1833017125,-0.315539814999999,0,TRUE,6.45008477,FALSE,1.4e-05,0,149
"mp-4973","CeSF",0,6,3,109.793871907433,5.78285221620609,18.2989786512388,4,129,3.96627573,90,-6.90847218,-7.23013884666667,-3.23646618354167,0,TRUE,7.47934813,TRUE,2.0002622,2,83
"mp-4974","La2Zr2O7",3.7346,22,3,315.542431775224,6.02297032745147,14.3428378079647,3,227,7.64171650416468,60,-9.07243808909091,-9.50961990727273,-3.91014386647727,0,TRUE,4.02098002,FALSE,0,0,145
"mp-4975","RbZnF3",4.0784,30,3,432.764861985154,4.78568788431754,14.4254953995051,6,194,5.88797113182999,90.0000009767177,-4.114344364,-4.391544364,-2.796601447,0,TRUE,-1.61720709,FALSE,0,0,85
"mp-4978","Ti2AlN",0,8,3,104.782719836593,4.33339807980478,13.0978399795741,6,194,2.9800306,90,-8.13846567125,-8.22871567125,-1.26045197416667,0,TRUE,7.40734594,FALSE,0,0,42
"mp-4979","AlCuS2",1.6756,8,3,146.427662293829,3.50773727814024,18.3034577867287,4,122,5.28681598836483,114.250672152851,-4.83837056125,-5.08987056125,-1.0604500028125,0,TRUE,5.20145593,FALSE,0,0,58
"mp-4982","SmBRh3",0,5,3,74.5530484179786,10.4659241602365,14.9106096835957,3,221,4.20876944,90,-7.432987418,-7.432987418,-0.734807114833335,0,TRUE,5.63253023,FALSE,0.0014627,0,157
"mp-4983","Nd7Al7Co6",0,40,3,800.999392048212,6.43553262600916,20.0249848012053,4,127,13.850959,90,-5.49368259825,-5.49368259825,-0.381384117875,0.0247622034999999,FALSE,5.05638527,FALSE,0.0070465,0,573
"mp-4984","SiB2Mo5",0,16,3,204.452762817756,8.59955936799592,12.7782976761097,4,140,7.03238935550379,129.016078897468,-9.53480076875,-9.52592576875,-0.399381753541666,0.0089891643750004,FALSE,9.15861603,FALSE,0.008067,0,187
"mp-4985","Dy(MnSi)2",0,5,3,78.6839474174955,6.93362872693699,15.7367894834991,4,139,3.87520269160925,109.128793856734,-7.388380944,-7.359980944,-0.603690247172413,0,TRUE,6.36782298,TRUE,4.4991171,3,105
"mp-4988","TlAsS2",1.677,32,3,866.685250067341,5.26407544828579,27.0839140646044,1,14,11.49627486,75.1540731093203,-4.088924071875,-4.340424071875,-0.516758750520833,0,TRUE,2.47901587,FALSE,0,0,130
"mp-4989","CrNiAs",0,9,3,121.499526785635,7.61026378205711,13.4999474206261,6,189,6.20529595238045,90,-6.91363779,-6.91363779,-0.216203604999998,0,TRUE,7.59655165,TRUE,9.4692032,6,85
"mp-4990","MnSnRh2",0,4,3,61.371901631821,10.2670204383975,15.3429754079552,3,225,4.42752985622444,60.000002881203,-7.4101133275,-7.4101133275,-0.435062605732759,0,TRUE,8.10177043,TRUE,5.0245005,3,120
"mp-4991","Tb2Sn2O7",2.7218,22,3,283.027317887203,7.82978900662188,12.8648780857819,3,227,7.36966564124239,60,-7.31045783545455,-7.74763965363636,-3.02812175465909,0,TRUE,4.06548997,FALSE,0,0,163
"mp-4992","ScCrC2",0,8,3,82.2427865508888,4.88507466904953,10.2803483188611,6,194,3.24638178,90,-8.9523852725,-8.9523852725,-0.3416733825,0,TRUE,7.4639045,FALSE,1e-07,0,51
"mp-4993","TbSi2Ni",0,8,3,129.375065423444,7.02822563871357,16.1718831779305,7,63,3.9587771,103.816281807112,-6.1594094925,-6.1239094925,-0.8076247825,0,TRUE,7.29447478,FALSE,0,0,107
"mp-4995","LiSbO3",2.1379,20,3,215.500133114852,5.44623189593279,10.7750066557426,7,52,4.87993988,90,-5.8823555215,-6.2945555215,-2.11895747341667,0,TRUE,3.64894126,FALSE,0,0,70
"mp-4997","ZrGeS",0,6,3,106.880890837299,6.08804354512982,17.8134818062165,4,129,3.63868592,90,-6.90532899833333,-7.072995665,-1.303936214375,0,TRUE,7.02603428,FALSE,0,0,88
"mp-4998","Sr2IrO4",0,28,3,387.649676076909,7.39272867208211,13.844631288461,4,142,5.46508283553618,101.641035080075,-6.54618149785714,-6.93875292642857,-2.36672779333333,0,TRUE,4.11469779,FALSE,0.0008602,0,139
"mp-4999","Nd(CoGe)2",0,5,3,81.5585156001764,8.29446602719697,16.3117031200353,4,139,3.98797227088805,109.920349498825,-6.23961448,-6.23961448,-0.5934467335,0,TRUE,5.85156647,FALSE,2.34e-05,0,119
"mp-5000","Tl(CuSe)2",0,5,3,105.750177813242,7.68471534956291,21.1500355626484,4,139,3.8436736584161,104.536992376353,-3.7604074,-3.9492074,-0.438631511604166,0,TRUE,4.68211898,FALSE,1e-07,0,144
"mp-5001","Li3BN2",3.2058,24,3,220.71624622252,1.79500765559886,9.19651025927168,1,14,7.01886746,67.1027193219974,-5.68859689416667,-5.8089302275,-0.962405190694445,0,TRUE,1.02868686,FALSE,0,0,18
"mp-5004","Na2B2Se7",1.4882,22,3,526.851186682948,3.91028121287,23.9477812128613,1,15,8.21193191262446,63.6408236287871,-4.09622175681818,-4.39658539318182,-0.717020441167548,0,TRUE,1.73539161,FALSE,0,0,220
"mp-5005","Mg3(BO3)2",5.1802,22,3,203.457231184669,3.11011953077207,9.24805596293952,7,58,4.4972946,90,-7.01170175772727,-7.38642903045455,-3.03736030689394,0,TRUE,2.57825311,FALSE,0,0,45
"mp-5012","Li2SiO3",5.1107,12,3,116.135092588222,2.57272037546325,9.67792438235186,7,36,4.6502353,119.869800696478,-6.55390271583333,-6.89740271583333,-2.88353106631944,0,TRUE,1.23602105,FALSE,0,0,33
"mp-5013","Cs2BeF4",6.6981,28,3,532.410324087317,4.37666068357756,19.0146544316899,7,62,6.11633807000045,90.0001997903689,-4.92263620214286,-5.18663620214286,-3.30433141940887,0,TRUE,-2.07561864,FALSE,0,0,86
"mp-5014","CuAgS",0.5674,12,3,220.607232430428,6.12645663731032,18.383936035869,7,62,4.019385,90,-3.79482944833333,-3.962496115,-0.273091934930556,0.0237327905555555,FALSE,4.3610271,FALSE,0.0006202,0,92
"mp-5015","UAlRh",0,9,3,168.428600702095,10.8818597909523,18.7142889668995,6,189,6.81965074052227,90,-8.02737626555555,-8.02737626555555,-0.560278362222222,0.165702901111112,FALSE,9.40339533,TRUE,5.9970119,3,150
"mp-5019","YCo3B2",0,6,3,64.2599735190305,7.42481524027044,10.7099955865051,6,191,5.03286185,90,-7.34276135666667,-7.34276135666667,-0.48439335,0,TRUE,5.55547425,TRUE,0.8816872,3,98
"mp-5020","BaTiO3",2.5087,5,3,65.6356490658401,5.89961040436988,13.127129813168,2,160,4.03380655450788,89.8363827999764,-8.011706982,-8.423906982,-3.49300036391667,0,TRUE,2.83582077,FALSE,0,0,94
"mp-5022","Er(SiRu)2",0,5,3,81.6136048955554,8.65879667338952,16.3227209791111,4,139,4.15385873448443,111.902463162286,-7.704598848,-7.676198848,-0.882766858000001,0,TRUE,6.81343385,FALSE,2e-07,0,126
"mp-5024","ZrP2O7",4.4725,40,3,604.869570926159,2.91183899374255,15.121739273154,3,205,8.45708273,90,-8.02714724725,-8.50804724725,-3.10793458504167,0,TRUE,-0.56221583,FALSE,0,0,103
"mp-5025","Zr2CS",0,8,3,124.014670181252,6.06624124083094,15.5018337726565,6,194,3.42696726,90,-8.95209444375,-9.07784444375,-1.46271528890625,0,TRUE,6.7970435,FALSE,1e-07,0,62
"mp-5026","MgSiO3",4.6626,40,3,428.862399929725,3.10961013551206,10.7215599982431,7,60,5.31230984,90,-7.19043896325,-7.60263896325,-3.2295061205,0.0066384087499979,FALSE,2.8051967,FALSE,0,0,42
"mp-5029","Ho2Cu2O5",0.1563,36,3,478.015947600647,7.46105529317365,13.2782207666846,7,33,3.509629,90,-6.91072166861111,-7.29238833527778,-2.61498004236111,0.0456732523611131,FALSE,3.24140793,TRUE,8.0029852,8,128
"mp-5031","TaSiAs",0,6,3,96.660807387929,9.75614316055268,16.1101345646548,4,129,3.50537634,90,-7.82605543666667,-7.80238877,-0.488317414999998,0,TRUE,8.05618878,FALSE,0,0,120
"mp-5032","La3Ru3O11",0,68,3,869.215379992849,6.84621961041733,12.7825791175419,3,201,9.543532,90,-7.81274088029412,-8.25727029205882,-2.54875236507353,0.0074837235294147,FALSE,6.55815617,TRUE,6.6899593,12,202
"mp-5033","Tl2SiF6",4.976,9,3,147.720973879162,6.19204909537215,16.4134415421292,3,225,5.93361000948213,60.0000071438666,-5.03593716333333,-5.34393716333333,-2.94177292685185,0,TRUE,-0.55300711,FALSE,2e-07,0,140
"mp-5036","ErPS4",2.1442,48,3,1076.42945529296,4.02927648326444,22.4256136519367,4,142,12.109706259446,127.796250094006,-5.43207564020833,-5.76740897354167,-1.34627217618056,0,TRUE,3.11445801,FALSE,0,0,131
"mp-5038","CsGaS2",3.0626,8,3,251.945959909517,3.51633208077456,31.4932449886896,1,15,5.93350940465893,117.384325621511,-4.10200751625,-4.35350751625,-1.30440798417026,0,TRUE,0.64989172,FALSE,0,0,102
"mp-5039","KPO3",5.0422,40,3,641.545960829136,2.44484784723836,16.0386490207284,1,14,4.55257852,79.0634855021755,-6.551613305,-6.963813305,-2.69105978751667,0,TRUE,-0.66681588,FALSE,0,0,50
"mp-5040","CaTe2O5",3.3756,32,3,543.368469173644,4.58737548143724,16.9802646616764,1,14,5.71741257,65.1791649535646,-5.797605865,-6.226980865,-2.09877396213542,0,TRUE,2.27425736,FALSE,0,0,104
"mp-5042","YTiGe",0,6,3,126.563573665548,5.49507584847384,21.093928944258,4,129,4.04422862,90,-7.038224605,-7.038224605,-0.709894276666667,0,TRUE,4.98106209,TRUE,0.9052647,4,93
"mp-5045","SnGeS3",1.6591,20,3,531.992430789319,3.59012405644237,26.599621539466,1,14,10.73326962,73.9204202825438,-4.5920272365,-4.8938272365,-0.685437374375,0,TRUE,2.88768618,FALSE,0,0,114
"mp-5046","BeSO4",6.9502,6,3,69.8346658910099,2.49848378594362,11.639110981835,4,82,4.50670871437775,118.728635353736,-6.45594739333333,-6.91394739333333,-2.30351113052083,0,TRUE,-0.54963868,FALSE,0,0,44
"mp-5048","LiGaTe2",1.5885,8,3,239.653775482886,4.59891053823599,29.9567219353607,4,122,6.35740665183722,115.289263979541,-3.4346184775,-3.6456184775,-0.839710808541666,0,TRUE,2.3152225,FALSE,0,0,86
"mp-5050","Rb(OsO3)2",0,18,3,261.573296572935,7.13449804542855,14.5318498096075,3,227,7.17854009381807,59.9999977514453,-7.10687218388889,-7.56487218388889,-1.66316093944444,0,TRUE,2.44328661,FALSE,5e-07,0,129
"mp-5051","Ho2Mo2C3",0,7,3,102.170306030643,9.06528972103434,14.5957580043776,1,12,3.32507606499457,111.341813600719,-8.72737402571429,-8.72737402571429,-0.364214820357143,0,TRUE,5.59896394,FALSE,0,0,121
"mp-5052","TiCdO3",2.4156,20,3,220.54685782643,6.27260383850362,11.0273428913215,7,33,5.31246054,90,-6.960393441,-7.372593441,-2.64090385891667,0.0387445740000007,FALSE,2.62952641,FALSE,0,0,86
"mp-5053","KCrF4",2.9232,144,3,2281.27777486289,2.91895542968646,15.8422067698812,7,62,7.584264,90,-5.53409353041667,-6.17526019708333,-3.10703314925,0,TRUE,-1.53561204,TRUE,72.4096593,24,70
"mp-5054","Pr(CoP)2",0,5,3,76.8114668395906,6.93347892490125,15.3622933679181,4,139,3.85248065215802,109.229496379765,-6.930509558,-6.930509558,-0.965680286333334,0,TRUE,6.90431035,TRUE,1.7083017,2,101
"mp-5055","Na6MnS4",1.4003,22,3,479.426587593251,2.22457404147569,21.7921176178751,6,186,8.94110545360726,89.999995009628,-4.06809577318182,-4.25100486409091,-1.19255336224922,0,TRUE,1.9095902,TRUE,10.0000002,2,128
"mp-5056","Mn2SiS4",0.3536,28,3,559.713845081963,3.15926686074833,19.9897801814987,7,62,5.93586906,90,-6.33411240035714,-6.62154097178571,-0.865091245837439,0.0267831489285681,FALSE,4.70376317,TRUE,40.0000037,8,87
"mp-5057","Nd(SiAu)2",0,5,3,95.123079173975,10.3753472848244,19.024615834795,4,139,4.32447711340131,111.366121083215,-5.047592504,-5.047592504,-0.6142830055,0,TRUE,6.84191371,FALSE,0,0,153
"mp-5058","FeAgS2",0,8,3,162.406014390337,4.65921826946414,20.3007517987921,4,122,6.49841180043432,128.756375182983,-5.0500227625,-5.3015227625,-0.407653525729167,0.228428124583332,FALSE,3.22724528,TRUE,5.7031648,2,89
"mp-5061","Li5ReO6",2.1583,12,3,102.13379178967,5.15244533187814,8.51114931580583,1,12,5.00819579582358,80.1093750967441,-6.27129696083333,-6.61479696083333,-2.30902414534722,0,TRUE,1.19238264,FALSE,0,0,127
"mp-5063","YAl3Ni2",0,18,3,281.856445505677,5.07671946676835,15.6586914169821,6,191,8.97912889,90,-5.53805942388889,-5.53805942388889,-0.660814096666666,0,TRUE,6.95556471,FALSE,1.91e-05,0,93
"mp-5065","Al2SiO5",5.4038,32,3,292.713484720385,3.67708391388102,9.14729639751202,5,2,5.56527498827377,105.993846497077,-7.63314308375,-8.06251808375,-3.35627892796875,0.0193462703125,FALSE,4.87833264,FALSE,0,0,59
"mp-5068","DyZrSb",0,6,3,151.361437948995,8.23863540584678,25.2269063248325,4,139,4.26801202372285,103.968773082961,-6.56052687,-6.62452687,-0.863363966666667,0,TRUE,5.62119625,FALSE,1.62e-05,0,157
"mp-5069","La(MnSi)2",0,5,3,93.9012862114309,5.39274444228046,18.7802572422862,4,139,4.19653495958188,110.112209602276,-7.369456156,-7.341056156,-0.518921406172413,0,TRUE,7.93690989,TRUE,7.4675128,2,96
"mp-5072","Rb2HgO2",2.03,5,3,122.744727940517,5.45903715596683,24.5489455881035,4,139,4.14718183842837,105.589892412754,-3.462155248,-3.736955248,-1.3053300615,0,TRUE,-0.02172225,FALSE,0,0,125
"mp-5075","Sc3CoC4",0,8,3,88.7152393619376,4.5267415860696,11.0894049202422,7,71,3.43701864378023,109.175801638315,-8.32572863,-8.32572863,-0.448180245,0,TRUE,6.17619517,FALSE,1e-07,0,87
"mp-5076","SrZrO3",3.5667,10,3,139.291303969354,5.40852622266162,13.9291303969354,4,140,5.84404201881407,120.840165616497,-8.253668154,-8.665868154,-3.65041611058333,0.0125930215000007,FALSE,1.92755495,FALSE,0,0,94
"mp-5077","NaLi2Sb",0.6796,4,3,78.4571226201932,3.3574293996033,19.6142806550483,3,225,4.80524813901062,59.9999976069776,-2.890522585,-2.938522585,-0.621179518304598,0,TRUE,3.71593126,FALSE,0,0,65
"mp-5078","SrZnF4",5.0642,12,3,172.859085145892,4.40012736811876,14.4049237621577,4,88,5.44806966700846,112.961635271478,-4.8762206425,-5.1842206425,-3.41836182027778,0,TRUE,-2.08273376,FALSE,0,0,95
"mp-5079","KSbF4",4.4258,48,3,834.533475940721,3.7702679692746,17.3861140820984,7,59,4.50002489,90,-4.71695595125,-5.02495595125,-2.87740327508333,0,TRUE,-0.29479616,FALSE,0,0,97
"mp-5080","Ba5Mg18Si13",0,36,3,821.580879940123,3.00997193098856,22.8216911094479,6,189,14.5206078206148,89.9999973088712,-3.30914788555556,-3.28350899666667,-0.2577020525,0,TRUE,4.58380333,FALSE,8e-07,0,224
"mp-5081","SmCuS2",1.1678,16,3,309.319124764963,5.97039889172082,19.3324452978102,1,14,6.44474123540247,90,-5.652698419375,-5.904198419375,-1.6315252846875,0,TRUE,5.09083839,FALSE,0,0,107
"mp-5082","Nd2Si3Rh",0,24,3,494.63696754027,6.38713898639386,20.6098736475113,6,194,8.27759786982316,90,-6.43283293666667,-6.43283293666667,-0.903406799166667,0,TRUE,5.91414674,FALSE,0.0016508,0,133
"mp-5083","Er(CuGe)2",0,5,3,81.7358389152332,8.93150985023253,16.3471677830466,4,139,5.8573116531581,140.167932565671,-4.877133444,-4.877133444,-0.474695872,0,TRUE,6.66099672,FALSE,5e-07,0,129
"mp-5088","NaGdO2",3.1172,8,3,113.24196482289,6.22437867940442,14.1552456028612,4,141,4.65330362425749,112.120429140393,-9.05960229875,-9.40310229875,-3.08009605976293,0,TRUE,1.65960833,TRUE,13.9999998,2,83
"mp-5090","Ti2FeSe4",0,7,3,133.962099820798,5.79393359024222,19.1374428315426,1,12,7.00431769176363,63.583811465419,-6.35592844428571,-6.62564273,-1.16212113657738,0.0604602599999974,FALSE,5.31860142,TRUE,2.2203547,3,150
"mp-5091","Dy(Al2Fe)4",0,13,3,188.848748530955,5.29100676689965,14.5268268100735,4,139,4.98684210064057,81.8967581217761,-5.69635632769231,-5.69635632769231,-0.430857995384615,0,TRUE,7.14830055,TRUE,6.9182349,5,157
"mp-5094","Co2(GeSe)3",0.3737,32,3,569.419771832191,6.6800273525032,17.794367869756,2,148,8.28851143343977,89.9308033011702,-5.174588405,-5.351588405,-0.529906706503906,0,TRUE,5.43052908,FALSE,0,0,127
"mp-5096","CaSiO3",5.366,10,3,93.9932629109897,4.10435886400357,9.39932629109897,7,74,5.09864472367403,119.929382014305,-7.249685077,-7.661885077,-3.20768826825,0.241109046666668,FALSE,6.23972739,FALSE,0,0,50
"mp-5104","CaZnF4",5.1236,12,3,152.170935467935,3.96075172250496,12.6809112889946,4,88,5.25827085313638,113.334538604884,-4.9200629475,-5.2280629475,-3.40951972083333,0.0041211991666667,FALSE,-1.61170986,FALSE,0,0,77
"mp-5105","La(SiRu)2",0,5,3,89.3730144502162,7.38023071493647,17.8746028900432,4,139,4.23157251161339,111.320054337377,-7.760163078,-7.731763078,-0.864673428999998,0,TRUE,8.50548209,FALSE,0,0,115
"mp-5106","TbCoC2",0,4,3,48.0384779468702,8.36102880994229,12.0096194867176,7,38,3.5906249,106.338120777562,-7.88821648,-7.88821648,-0.33821276,0,TRUE,5.5804848,FALSE,2.5e-06,0,98
"mp-5109","Y(NiGe)2",0,5,3,79.4573386658596,7.34734047069121,15.8914677331719,4,139,4.04700675584622,111.054424142422,-6.151273596,-6.151273596,-0.696713559333333,0,TRUE,6.50813945,FALSE,1e-07,0,99
"mp-5111","YbCuGe",0,6,3,108.300421984027,9.48254575562377,18.0500703306712,6,194,4.26665678161022,90,-3.96325183,-3.96325183,-0.542637561666667,0,TRUE,4.51721442,FALSE,3.7e-06,0,131
"mp-5112","Pr(CoSi)2",0,5,3,77.7534128540433,6.72611688098658,15.5506825708087,4,139,3.93803032449456,110.079642372757,-6.710011442,-6.681611442,-0.711975961,0,TRUE,6.46346816,TRUE,0.1577888,2,100
"mp-5114","K6HgS4",1.7161,22,3,669.549926522722,2.79475439400422,30.4340875692146,6,186,10.0079242041733,89.9999893708638,-3.10447511318182,-3.28738420409091,-1.14994115731818,0,TRUE,0.24865348,FALSE,0,0,223
"mp-5121","Nd2Te4O11",3.292,34,3,521.461985472365,6.2087824345586,15.3371172197754,1,15,6.844614863986,75.6131706899161,-6.33206599794118,-6.77659540970588,-2.27523692370098,0,TRUE,3.48981008,FALSE,0,0,216
"mp-5122","Na3AlP2",1.346,12,3,266.663803611092,1.96649420819401,22.2219836342577,7,72,5.98695037953676,115.131415213168,-3.60099013666667,-3.60099013666667,-0.511030682720307,0,TRUE,2.38936207,FALSE,0,0,50
"mp-5124","MnNi2Sb",0,4,3,55.4491187603648,8.8069816966428,13.8622796900912,3,225,4.28025735366485,60,-6.33173313,-6.37973313,-0.166910656982759,0.0682253025000001,FALSE,9.37081215,TRUE,3.9566691,3,104
"mp-5125","Na3FeSe3",0,28,3,704.594254583467,3.4096646370767,25.1640805208381,1,14,7.232129,61.1696249816615,-4.06472343785714,-4.26700915214286,-0.991961791669489,0.0079104739285709,FALSE,1.40474462,TRUE,16.0009455,4,116
"mp-5126","ZnSO4",3.8233,24,3,272.603193264817,3.93436183538668,11.358466386034,7,62,4.75275201,90,-5.60325719125,-6.06125719125,-1.86409913760417,0,TRUE,0.97992552,FALSE,0,0,70
"mp-5127","LiCuO",1.4376,12,3,133.922403039691,4.28947039987122,11.1602002533076,4,139,3.81378292567161,84.6157566062881,-4.85597677083333,-5.08497677083333,-1.43337068819444,0,TRUE,2.60535056,FALSE,0,0,40