"material_id","formula_pretty","band_gap","nsites","nelements","volume","density","density_atomic","crystal_symmetry","symmetry_number","sides_abc","angles_abc","uncorrected_energy_per_atom","energy_per_atom","formation_energy_per_atom","energy_above_hull","is_stable","efermi","is_magnetic","total_magnetization","num_magnetic_sites","atomic_number"
"mp-2067","ThGa2",0,6,2,133.059371538972,9.27200823383572,22.176561923162,4,141,4.26397674951762,105.625932145933,-5.12865142166667,-5.12865142166667,-0.638634656666667,0,TRUE,5.7605962,FALSE,0,0,121
"mp-2068","RhF3",0.8626,8,2,93.2421057182266,5.69531056860203,11.6552632147783,2,167,5.33199513741187,54.4202657641776,-4.76550337625,-5.11200337625,-1.837317183125,0,TRUE,0.83282575,FALSE,0,0,63
"mp-2070","CoS2",0,12,2,168.56854818517,4.84909540144196,14.0473790154308,3,205,5.52406223000003,89.9999070666293,-5.48433902166667,-5.819672355,-0.692599845416667,0,TRUE,8.01407251,TRUE,4.0000004,4,43
"mp-2071","Zn3P2",0.3144,40,2,731.082229836407,4.69122476905276,18.2770557459102,4,137,8.03636072,90,-3.1094812545,-3.1094812545,-0.188314085833333,0,TRUE,3.27537034,FALSE,0,0,75
"mp-2072","KTe",0.6709,8,2,337.061762774842,3.28496519103196,42.1327203468552,6,194,5.62797144,90,-2.9656639525,-3.1766639525,-1.04981153233333,0,TRUE,1.41087109,FALSE,0,0,71
"mp-2074","Li3Sb",0.7074,4,2,70.0895977825068,3.37802825560115,17.5223994456267,3,225,4.62795920950635,60.0000066741148,-3.095819235,-3.143819235,-0.679876775,0,TRUE,4.20198948,FALSE,0,0,57
"mp-2075","Si3N4",3.3333,14,2,118.065627630642,3.94604093869418,8.43325911647442,3,227,5.50654880365624,60,-8.03501511071429,-8.241300825,-1.15245314071429,0.147139670000001,FALSE,9.18194215,FALSE,0,0,49
"mp-2076","ZrSe2",0.3296,3,2,80.5039131252109,5.13904640344036,26.8346377084036,2,164,3.81115295,90,-6.50873576333333,-6.82340243,-1.64356123489583,0,TRUE,2.41146818,FALSE,0,0,74
"mp-2077","DyMg",0,2,2,54.1336493468844,5.73020670283087,27.0668246734422,3,221,3.78287887,90,-3.18329936,-3.18329936,-0.0797659149999998,0,TRUE,3.16240231,FALSE,0,0,78
"mp-2078","TiCu",0,4,2,56.4596007878481,6.55355817063889,14.114900196962,4,129,3.0975765,90,-6.133154735,-6.133154735,-0.135805391666667,0,TRUE,6.65960882,FALSE,1e-07,0,51
"mp-2079","Rb2P3",0.7644,10,2,321.046398870539,2.72947878397542,32.1046398870539,7,69,6.61903508375347,110.79401611366,-4.072774383,-4.072774383,-0.432579250000001,0,TRUE,2.31509446,FALSE,0,0,67
"mp-2080","SrBe13",0,28,2,282.718719346865,2.40551794747144,10.0970971195309,3,226,7.36698613081843,60.0000020646587,-3.64373553892857,-3.64373553892857,-0.0507454890476195,0,TRUE,3.67935636,FALSE,3e-07,0,38
"mp-2081","TlTe",0,16,2,537.714045215173,8.20170116833291,33.6071278259483,4,140,6.19209494409593,84.2948204310865,-2.977766894375,-3.188766894375,-0.435792374375,0.0382102053125024,FALSE,4.930634,FALSE,2e-07,0,133
"mp-2082","PIr2",0,3,2,42.9116341121433,16.0749137533933,14.3038780373811,3,225,3.92973603576286,59.9999845753382,-8.10998940333333,-8.10998940333333,-0.413265781111111,0,TRUE,10.10705763,FALSE,3e-07,0,92
"mp-2083","Sn2Ir",0,3,2,64.5289702755015,11.0559492877524,21.5096567585005,3,225,4.50218315429021,60.0000165757884,-5.91960991333333,-5.91960991333333,-0.300417283333333,0,TRUE,8.63689996,FALSE,4e-07,0,127
"mp-2084","Si5Ir3",0.966699999999999,64,2,948.779770908609,10.0401538867432,14.824683920447,1,14,6.43285515589052,90,-7.3355146353125,-7.2911396353125,-0.585903049062501,0.0005743359374994,FALSE,9.07469531,FALSE,0,0,210
"mp-2085","PrCo2",0,6,2,98.549711033242,8.72056139661265,16.4249518388737,3,227,5.18469783849069,60,-6.32387962666667,-6.32387962666667,0.0086341549999993,0.0496818814197528,FALSE,4.87631258,TRUE,3.2094474,6,86
"mp-2086","PuS",0,2,2,44.707373281931,10.2537161941966,22.3536866409655,3,225,3.98380480140924,60,-10.97669734,-11.22819734,-2.0260532415625,0,TRUE,10.04640477,TRUE,5.7934373,1,16
"mp-2088","CeAl2",0,6,2,125.496460101822,5.13601562050113,20.916076683637,3,227,5.61973076449006,59.9999913871545,-4.938927495,-4.938927495,-0.464180556666666,0,TRUE,7.93485577,TRUE,2.5754353,2,71
"mp-2089","ZrTe3",0,8,2,248.523498085575,6.33449453729291,31.0654372606968,1,11,4.01694208,82.5447388222465,-5.21104454625,-5.52754454625,-1.03313996875,0,TRUE,5.38627769,FALSE,0,0,144
"mp-2090","FeCo",0,2,2,22.8827468166162,8.32914327631918,11.4413734083081,3,221,2.8390261,90,-7.85709309,-7.85709309,-0.0679235875000001,0,TRUE,5.856664,TRUE,4.8366533,2,53
"mp-2091","V3B2",0,10,2,98.0671471133737,5.90769155233503,9.80671471133737,4,127,3.01044776,90,-8.844793895,-8.844793895,-0.722693544666666,0,TRUE,6.98039375,FALSE,0,0,51
"mp-2092","CePd3",0,4,2,70.8915804578659,10.7602593895028,17.7228951144665,3,221,4.13870757,90,-6.2003872875,-6.2003872875,-0.83220364125,0,TRUE,6.87680042,TRUE,0.3411827,1,150
"mp-2093","Pr3Al",0,4,2,119.640744878087,6.2416183759689,29.9101862195217,3,221,4.92749911,90,-4.6821515,-4.6821515,-0.16007822625,0.0331584712500001,FALSE,4.25389545,FALSE,5.86e-05,0,131
"mp-2095","Rb2Te3",0.6695,20,2,837.204042658343,4.39319233790385,41.8602021329172,7,62,4.7923262,90,-2.9836299855,-3.2368299855,-0.9586328205,0,TRUE,2.44308638,FALSE,0,0,141
"mp-2096","YbMg2",0,12,2,329.543395932376,4.4674964044786,27.4619496610313,6,194,6.23018176109113,90.000127080656,-1.66449589333333,-1.66449589333333,-0.0844397666666667,5.31066666666913e-05,FALSE,2.35900092,FALSE,2e-06,0,82
"mp-2097","SnO",0.4096,4,2,71.0765925178298,6.29434286068603,17.7691481294574,4,129,3.81369522,90,-5.7649688325,-6.1084688325,-1.630338549375,0,TRUE,6.30205676,FALSE,0,0,58
"mp-2098","CeOs2",0,6,2,109.924915922772,15.7277679564781,18.320819320462,3,227,5.37696198659693,60.0000722353503,-9.700271375,-9.700271375,-0.23766337,0.0100589983333332,FALSE,8.66306517,FALSE,1.89e-05,0,134
"mp-2099","FeS",0,4,2,57.5575696437697,5.0724167211465,14.3893924109424,6,194,3.40660211034647,90,-6.4939173575,-6.7454173575,-0.4421818190625,0.315733134999997,FALSE,6.29794478,TRUE,5.1154771,2,42
"mp-2102","PrGe",0,8,2,206.198341856557,6.8788955762274,25.7747927320696,7,62,4.07451768,90,-5.534124455,-5.534124455,-0.83215765,0.0021324075000004,FALSE,4.78622379,FALSE,7.4e-06,0,91
"mp-2103","CuAu3",0,4,2,64.6212792614869,16.8169475420743,16.1553198153717,3,221,4.01290166,90,-3.497847415,-3.497847415,-0.0176342475000002,0.0064345000000001,FALSE,5.44474293,FALSE,1e-07,0,187
"mp-2104","UAs",0,2,2,52.0237004457299,9.98903467679121,26.0118502228649,3,225,4.19023789371486,60.0000182102805,-8.696740885,-8.696740885,-0.7214766775,0,TRUE,8.45722035,TRUE,2.7076936,1,125
"mp-2105","Hf3Si2",0,10,2,178.980839535627,10.9781918159651,17.8980839535627,4,127,3.66328402,90,-8.942892006,-8.914492006,-0.770051375999999,0,TRUE,6.47767337,FALSE,0,0,158
"mp-2108","Ti5Si3",0,16,2,245.668568917617,4.37448168267619,15.354285557351,6,193,7.44707532,90,-7.739208146875,-7.712583146875,-0.743406375208333,0,TRUE,7.39430384,FALSE,9.2e-06,0,116
"mp-2109","CePt2",0.0089000000000005,6,2,116.899823247805,15.0651604755005,19.4833038746342,3,227,5.48836460806991,60.0000003895507,-7.02216973333333,-7.02216973333333,-0.997051135,0.0251967213333346,FALSE,8.61170492,TRUE,2.0840245,2,136
"mp-2114","YN",0.151000000000001,2,2,29.3532772394838,5.82184770457444,14.6766386197419,3,225,3.46250654252078,59.9999948980106,-9.088330365,-9.268830365,-1.86734734583333,0,TRUE,4.18413615,FALSE,0,0,46
"mp-2116","ZrMn2",0,6,2,86.3522366950345,7.73424218115194,14.3920394491724,3,227,4.96130820438289,59.9999994067781,-9.14465897333333,-9.14465897333333,-0.187415235287356,0,TRUE,5.38558996,TRUE,3.1021597,6,65
"mp-2117","TbN",0.0133999999999998,2,2,29.8711060437738,9.61331744701429,14.9355530218869,3,225,3.48274821055448,59.9999949647772,-8.140770615,-8.321270615,-1.8358401025,0,TRUE,3.99164718,FALSE,0,0,72
"mp-2118","RhN3",0,16,2,144.256682690235,6.67295590228446,9.01604266813968,3,204,5.72250187851712,109.471220634491,-7.36700777,-7.63775777,0.455690391250001,0.455690391250001,FALSE,8.12667017,FALSE,0.0005205,0,59
"mp-2119","TbC2",0,3,2,42.1880947970342,7.20085196887961,14.0626982656781,4,139,3.68221478454403,116.986972974882,-7.88468197,-7.88468197,-0.187449608333334,0.0437705460416664,FALSE,4.40364321,FALSE,0,0,71
"mp-2120","HoAg2",0,3,2,62.4803661237899,10.1169695238678,20.82678870793,4,139,3.69660666516604,110.544722649948,-3.75126903666667,-3.75126903666667,-0.335428744444445,0,TRUE,3.50789934,FALSE,1e-07,0,114
"mp-2121","ScAl3",0,4,2,68.3079122729266,3.06059339190667,17.0769780682316,3,221,4.08780657,90,-4.84723031,-4.84723031,-0.454931161249999,0,TRUE,6.85653516,FALSE,1.63e-05,0,47
"mp-2123","Nb3Au2",0,5,2,89.375045068954,12.497508504692,17.8750090137908,4,139,3.41561894157076,102.254663164009,-7.517823696,-7.517823696,-0.147487872000001,0,TRUE,5.56798434,FALSE,0,0,161
"mp-2124","Ho4Sb3",0,14,2,379.613949026675,8.96729255138833,27.1152820733339,3,220,7.90050188353988,109.471216261775,-5.35436295571429,-5.43664867,-1.04855735571429,0.0232462710714296,FALSE,5.78469013,FALSE,1.31e-05,0,303
"mp-2125","TeO2",2.2279,24,2,375.263941176823,5.64978434221803,15.6359975490343,7,61,5.41754019,90,-5.38311195041667,-5.84111195041667,-1.49555084513889,0,TRUE,3.89286588,FALSE,0,0,60
"mp-2126","HfIr3",0,4,2,61.3055076016878,20.4539719243246,15.3263769004219,3,221,3.94305799,90,-9.9351878575,-9.9351878575,-0.817064965,0,TRUE,8.71590248,FALSE,1.7e-06,0,226
"mp-2127","Pr3Te4",0,14,2,444.81478237684,6.96688677537401,31.7724844554886,3,220,8.32914057391934,109.471216976606,-5.29039166571429,-5.53153452285714,-1.68640011738095,0.0072933080357131,FALSE,6.57914564,FALSE,4e-07,0,274
"mp-2128","Sn4Pd",0,10,2,241.86444685559,7.98137097370255,24.186444685559,7,68,6.44536491,119.111425714137,-4.480478088,-4.480478088,-0.236844242,0,TRUE,7.58475487,FALSE,0,0,196
"mp-2129","NdGe2",0,6,2,137.748683339147,6.98028583629354,22.9581138898578,4,141,4.13065452982581,103.91978215743,-5.27530551333333,-5.27530551333333,-0.603904465833333,0.0615475475,FALSE,5.30324761,FALSE,1.3e-06,0,92
"mp-2130","LuNi2",0,6,2,85.2413107960215,11.3903669860417,14.2068851326702,3,227,4.93987957323895,60.0019130203262,-5.87842855666667,-5.87842855666667,-0.518020596666666,0,TRUE,5.97278512,FALSE,1.21e-05,0,99
"mp-2131","SrN6",3.6681,14,2,209.068941797171,2.72683705030573,14.9334958426551,7,70,6.13165966037983,77.5203107660047,-7.57567622071429,-7.88510479214286,-0.49818150595238,0,TRUE,0.37559521,FALSE,0,0,73
"mp-2132","CrN",0,2,2,18.4012762769648,5.95612099157421,9.20063813848239,3,225,2.96338192935785,60.0000039511194,-9.45758982125,-9.63808982125,-0.64331862375,0.04821809375,FALSE,7.77696349,TRUE,2.9433927,1,31
"mp-2133","ZnO",0.7227,4,2,47.3971482599004,5.70421780686615,11.8492870649751,6,186,3.23735118,90,-4.55125142,-4.89475142,-1.791535259375,0,TRUE,0.8923141,FALSE,0,0,38
"mp-2134","ErAl3",0,4,2,74.198886159679,5.55468985909451,18.5497215399198,3,221,4.20209431,90,-4.37033096,-4.37033096,-0.419219385000001,0,TRUE,6.02653769,FALSE,2e-07,0,94
"mp-2136","Sb2O3",2.2239,20,2,331.984873498533,5.83252308605021,16.5992436749266,7,56,4.96361487,90,-5.959914601,-6.372114601,-1.75250087825,0,TRUE,4.28242699,FALSE,0,0,67
"mp-2137","Mg2Ni",0,18,2,300.36648344397,3.55928169420229,16.6870268579983,6,180,5.15114353,90,-3.16672590111111,-3.16672590111111,-0.173160307777778,0,TRUE,4.66852209,FALSE,5e-07,0,40
"mp-2139","BaGe2",0.5255,24,2,741.27252682586,5.06458768684267,30.8863552844109,7,62,6.86588645,90,-4.25193338125,-4.25193338125,-0.530256497916666,0,TRUE,2.2649389,FALSE,0,0,88
"mp-2142","Te2Os",0,12,2,266.966230550594,11.0823592168967,22.2471858792161,3,205,6.43900521,90,-5.91048204916667,-6.1918153825,-0.353822310277779,0,TRUE,8.08577755,FALSE,2e-07,0,128
"mp-2143","USe",0,2,2,51.6861598175724,10.1840119403685,25.8430799087862,3,225,4.18115647970291,60,-8.38140498,-8.61740498,-1.22374423617187,0,TRUE,9.57626167,TRUE,3.1830193,1,126
"mp-2145","ErSi2",0,3,2,55.3979333023488,6.69725784941345,18.4659777674496,6,191,4.07006973,90,-5.63000745,-5.58267411666667,-0.443222493333334,0.0827762899999999,FALSE,6.77102132,FALSE,0,0,82
"mp-2146","KGe",0.9106,64,2,2060.16408731373,2.88203548100724,32.190063864277,3,218,12.7243011,90,-3.07934357703125,-3.07934357703125,-0.21263017603125,0,TRUE,0.93011116,FALSE,1e-07,0,51
"mp-2147","SrGe",0,4,2,115.340064874106,4.61449351712756,28.8350162185264,7,63,4.20167515,112.963607831544,-3.7771757025,-3.7771757025,-0.620915048333333,0,TRUE,3.72662909,FALSE,4e-07,0,70
"mp-2149","NpIr2",0,6,2,108.97888021482,18.937897550046,18.1631467024701,3,227,5.36160903762318,60.0023620617506,-10.65174083,-10.65174083,-0.443524816250001,0,TRUE,11.74433129,TRUE,7.3723502,2,77
"mp-2150","BaTe2",0.351299999999999,6,2,239.757411733915,5.43721600497321,39.9595686223192,4,140,6.85725266768191,97.047528953974,-3.92838046166667,-4.209713795,-1.47451821944444,0,TRUE,4.22978991,FALSE,0,0,108
"mp-2151","Mg17Al12",0,29,2,568.369002681731,2.1531023252964,19.5989311269562,3,217,9.03824462977104,109.471220634491,-2.51501793448276,-2.51501793448276,-0.0270292858620691,0,TRUE,5.02840363,FALSE,1e-07,0,0
"mp-2152","YNi5",0,6,2,79.3407648540015,8.00275944655402,13.2234608090002,6,191,4.84287833001309,90,-6.21323515166667,-6.21323515166667,-0.318709399444445,0,TRUE,6.50155335,TRUE,1.8905516,5,151
"mp-2154","CeP",0,2,2,51.9942966964079,5.4640845582574,25.997148348204,3,225,4.18944987946711,59.9999784354389,-7.173811125,-7.173811125,-1.50061529416667,0,TRUE,7.10651623,TRUE,0.9032509,1,73
"mp-2156","TiS2",0,9,2,183.466137451318,3.04103083695236,20.3851263834798,2,164,3.42572915630467,90.0026276190622,-6.66227639333333,-6.99760972666667,-1.60814580986111,0,TRUE,4.02478583,FALSE,0,0,38
"mp-2157","Co3W",0,8,2,91.116048807315,13.1449097649378,11.3895061009144,6,194,5.05516727000001,90.0000006829382,-8.655120935,-8.655120935,-0.0843500312499987,0,TRUE,6.51511944,TRUE,3.5543788,8,128
"mp-2159","DyTe",0,2,2,57.8860875284839,8.32190261578172,28.9430437642419,3,225,4.34206704160408,59.9999816825384,-5.14998766,-5.36098766,-1.48594129333333,0,TRUE,6.52077974,FALSE,2e-06,0,118
"mp-2160","Sb2Se3",0.7564,20,2,579.444433818742,5.50681253308357,28.9722216909371,7,62,4.00155687,90,-4.004696815,-4.287896815,-0.538749432406249,0,TRUE,3.80523339,FALSE,0,0,119
"mp-2162","Er6Fe23",0,29,2,427.115112677178,8.89524862428047,14.7281073336958,3,225,8.45317731215914,60,-7.73516993413793,-7.73516993413793,-0.0725216344827578,0.0098775455172415,FALSE,4.34986392,TRUE,50.9481935,29,366
"mp-2163","HoRh",0,2,2,38.8375433418592,11.4515956539787,19.4187716709296,3,221,3.38649613,90,-6.888482155,-6.888482155,-0.915123785,0,TRUE,4.60232649,FALSE,2.28e-05,0,112
"mp-2164","Mo3S4",0,14,2,273.589047815099,5.05076574043178,19.5420748439357,2,148,6.49357983109448,91.3247605720367,-7.68948595928571,-7.97691453071429,-0.965093131071429,0.0648115821428527,FALSE,5.14934646,FALSE,0.0001121,0,132
"mp-2165","SmZn",0,2,2,47.5877441069519,7.52909936339836,23.7938720534759,3,221,3.62380683,90,-3.318883625,-3.318883625,-0.3297187525,0,TRUE,2.94851421,FALSE,0.0905767,0,92
"mp-2167","DyAg",0,2,2,46.9171793593039,9.56913788503979,23.458589679652,3,221,3.60670508,90,-4.053743095,-4.053743095,-0.334071673333333,0,TRUE,3.75549057,FALSE,1e-06,0,113
"mp-2168","SnSe",0.4852,4,2,109.593690694477,5.9901031750063,27.3984226736192,7,63,4.27065982863176,90,-4.1706689475,-4.4066689475,-0.653927281171875,0.0146227862499994,FALSE,5.23460005,FALSE,0,0,84
"mp-2170","Li2Pt",0,3,2,39.8353910982484,8.71075184715316,13.2784636994161,6,191,4.17213072,90,-3.83849631,-3.83849631,-0.542169958888889,0,TRUE,2.96472187,FALSE,1e-07,0,81
"mp-2172","AlAs",1.5037,2,2,45.711095247398,3.70181772584166,22.855547623699,3,216,4.013398250535,59.9999959688638,-4.68748928,-4.68748928,-0.4851421625,0,TRUE,3.58128419,FALSE,0,0,46
"mp-2173","P2O5",4.8374,28,2,323.921141338827,2.91063962565371,11.5686121906724,7,62,4.88999163,90,-7.02385364964286,-7.51456793535714,-2.43456099684524,0.0052077267857137,FALSE,0.98677272,FALSE,0,0,47
"mp-2175","TlF",2.2117,2,2,42.6979213985191,8.68740287062573,21.3489606992595,3,225,3.92318078282674,119.999734170167,-3.837006635,-4.068006635,-1.93094557791667,0.0358628387499999,FALSE,2.05430294,FALSE,0,0,90
"mp-2176","ZnTe",1.0733,6,2,171.177484280555,5.61695925230642,28.5295807134258,3,216,4.32281272474582,90,-2.674687785,-2.885687785,-0.684163033333333,0,TRUE,2.85423966,FALSE,0,0,82
"mp-2178","YbGa2",0,6,2,118.058416188158,8.79048233102782,19.6764026980264,6,194,4.3835096,90,-3.14470519,-3.14470519,-0.612771748333333,0,TRUE,3.36342814,FALSE,0,0,101
"mp-2179","TiRe",0,2,2,30.0245793040621,12.9456941773949,15.0122896520311,3,221,3.10808087,90,-10.567948405,-10.567948405,-0.397938804166666,0,TRUE,6.8118634,FALSE,1.8e-06,0,97
"mp-2180","HfSb2",0,24,2,581.761281437861,9.63644867893418,24.2400533932442,7,58,3.89910177,90,-6.47440456458333,-6.60240456458333,-0.53067406125,0,TRUE,7.8778909,FALSE,1e-07,0,123
"mp-2182","SnAs",0,2,2,47.620190956296,6.75202744615945,23.810095478148,3,225,4.0685091686159,60.0000089902958,-4.383646725,-4.383646725,-0.0493015950000002,0.0298920543749998,FALSE,6.31755539,FALSE,0,0,83
"mp-2183","ThSe",0,2,2,52.3742992381104,9.86026420934014,26.1871496190552,3,225,4.19962939655467,60.0000061143944,-7.004276065,-7.240276065,-1.78539120117187,0,TRUE,7.64990995,FALSE,2.2e-06,0,124
"mp-2184","As2O3",4.0234,20,2,346.290333890174,3.79477382461422,17.3145166945087,3,227,7.8822778940572,60.0000047698411,-6.039927479,-6.452127479,-1.62046689025,0.0093810365000051,FALSE,-0.65334927,FALSE,0,0,49
"mp-2186","NpAs",0,2,2,50.5253699343744,10.2514440406698,25.2626849671872,3,225,4.14961783725285,60.0000071412765,-9.49739106,-9.49739106,-0.693942016875001,0,TRUE,8.64605211,TRUE,3.8804709,1,33
"mp-2187","TiSb",0,4,2,88.2145541510184,6.38607229750209,22.0536385377546,6,194,4.06298061,90,-6.4716784375,-6.5676784375,-0.555431809166667,0,TRUE,7.44055887,FALSE,7.51e-05,0,73
"mp-2189","CrSe",0,4,2,75.7896368389734,5.73845525930143,18.9474092097433,6,194,3.77654756126174,90,-6.876991575,-7.112991575,-0.538512101171874,0.136844675833332,FALSE,5.05127928,TRUE,7.7988997,2,58
"mp-2191","ErSb",0,2,2,57.89232181057,8.28999987355905,28.946160905285,3,225,4.34222161005927,59.9999937625713,-5.43440803,-5.53040803,-1.182048005,0,TRUE,5.44860593,FALSE,1.3e-06,0,119
"mp-2192","BPt",0,4,2,44.8128663272416,15.2588628730392,11.2032165818104,6,194,3.75874914568783,90,-6.30505817,-6.30505817,0.0702043754166679,0.20188345020834,FALSE,8.10329953,FALSE,0.0027082,0,83
"mp-2194","TiSe2",0,3,2,69.5350740150515,4.91431637542294,23.1783580050172,2,164,3.55656645,90,-6.07411662,-6.38878328666667,-1.42634496267361,0,TRUE,3.27506234,FALSE,0,0,56
"mp-2195","LuMg",0,2,2,51.2926634359409,6.45119435633857,25.6463317179704,3,221,3.71550985,90,-3.10667735,-3.10667735,-0.0460620649999996,0,TRUE,2.9141663,FALSE,5.89e-05,0,83
"mp-2196","BaSb2",0,18,2,656.922050346986,5.77613117017495,36.4956694637214,1,11,4.4286625,101.413460172066,-4.11360621111111,-4.24160621111111,-0.849280404444444,0,TRUE,4.89793956,FALSE,1e-07,0,107
"mp-2197","BaHg",0,2,2,72.9696560470416,7.68983177619105,36.4848280235208,3,221,4.17876004,90,-1.644358745,-1.644358745,-0.5330310925,0,TRUE,2.47520679,FALSE,8.47e-05,0,136
"mp-2199","Fe3Si",0,4,2,44.5513342590072,7.29126271705659,11.1378335647518,3,225,3.9791629340304,60.0000107339557,-8.030664085,-8.012914085,-0.304068669999999,0,TRUE,7.72918545,TRUE,6.6896354,3,66
"mp-2201","PbSe",0.4257,2,2,59.0544498281567,8.0464700065954,29.5272249140784,3,225,4.37108448363559,60.0000028436108,-4.16491995,-4.40091995,-0.796640676171875,0,TRUE,4.55845249,FALSE,0,0,116
"mp-2203","YB6",0,7,2,68.4062909170966,3.73275850576102,9.77232727387094,3,221,4.08976808,90,-7.04854045,-7.04854045,-0.399565915952381,0.0285228292857153,FALSE,6.97783119,FALSE,0,0,64
"mp-2204","Nd3Te4",0,14,2,436.721021248299,7.17207320705445,31.1943586605928,3,220,8.27831563242695,109.471219611316,-5.26574125,-5.50688410714286,-1.66721755416667,0.0256833710714312,FALSE,6.60628194,FALSE,2.9e-06,0,276
"mp-2205","LuPd",0,2,2,39.6388182522054,11.7877910325285,19.8194091261027,3,221,3.40962722,90,-5.82472381,-5.82472381,-0.974307645,0,TRUE,3.75229939,FALSE,2.01e-05,0,117