"material_id","formula_pretty","band_gap","nsites","nelements","volume","density","density_atomic","crystal_symmetry","symmetry_number","sides_abc","angles_abc","uncorrected_energy_per_atom","energy_per_atom","formation_energy_per_atom","energy_above_hull","is_stable","efermi","is_magnetic","total_magnetization","num_magnetic_sites","atomic_number"
"mp-5129","Y(CoSi)2",0,5,3,72.117561326526,6.05438556555546,14.4235122653052,4,139,3.85385537922347,110.246861482438,-7.138128732,-7.109728732,-0.802980179333333,0,TRUE,6.70540407,FALSE,4.5e-06,0,80
"mp-5131","K2CoS2",0,10,3,257.202345704223,2.59873020378849,25.7202345704223,7,72,7.79604389657511,135.206921728948,-4.296537779,-4.497737779,-0.97733469445,0.0505639196666667,FALSE,2.57471665,TRUE,6.001385,2,62
"mp-5132","YPO4",5.8009,12,3,142.973444228553,4.27121687710608,11.9144536857127,4,141,5.72768303895312,106.052199301901,-8.30511307666667,-8.76311307666667,-3.4853583325,0,TRUE,2.14166418,FALSE,0,0,78
"mp-5134","LaMg2Ni9",0,12,3,160.54660040508,7.40308990282098,13.37888336709,2,166,8.32341788620823,33.9789752164252,-5.25963338166667,-5.25963338166667,-0.246483604583333,0.0046444210416636,FALSE,7.26079757,TRUE,3.2816606,9,293
"mp-5135","Dy(CoB)2",0,5,3,58.3265163472808,8.59752220188983,11.6653032694562,4,139,3.52847302823441,109.413697488741,-7.001697782,-7.001697782,-0.565256587666666,0,TRUE,5.3046968,FALSE,0,0,98
"mp-5137","Zr2SbP",0,8,3,170.550339832937,6.52689887053906,21.3187924791171,6,194,3.84457582,90,-7.79234038,-7.84034038,-1.18091412833333,0,TRUE,6.59286929,FALSE,1e-07,0,106
"mp-5141","Na2SeO4",3.3557,14,3,191.514076716383,3.27639101093459,13.6795769083131,7,70,5.88221930733083,103.023908369061,-5.06766335642857,-5.460234785,-1.75627522649246,0,TRUE,-0.16683656,FALSE,0,0,69
"mp-5142","Sn3Te3Ir2",0.568899999999999,32,3,850.773015262171,8.77032898104889,26.5866567269428,2,148,9.47555989453906,89.9326573379196,-5.301392693125,-5.301392693125,-0.4094549925,0.0452600312499997,FALSE,7.2121844,FALSE,0.000557,0,281
"mp-5145","Ag3AsSe3",0.8453,14,3,331.50635422506,6.36559031108968,23.67902530179,2,161,7.18505446664282,103.913481493258,-3.47226851785714,-3.67455423214286,-0.296765539575893,0.0116232503571436,FALSE,2.4277145,FALSE,0,0,195
"mp-5146","Zn(RhO2)2",0.9324,14,3,155.228232692386,7.17191597117494,11.087730906599,3,227,6.03247109927941,60.0000022666603,-6.02034206,-6.41291348857143,-1.30218288928571,0,TRUE,3.86507589,FALSE,0,0,83
"mp-5149","NbAlCo2",0,4,3,52.6045884530524,7.50505477359863,13.1511471132631,3,225,4.20577595484939,60.0000084585833,-7.44468919,-7.44468919,-0.428810075,0,TRUE,6.66127638,TRUE,2.0000777,2,81
"mp-5150","HoSi2Ni",0,8,3,127.30654913343,7.2990755990322,15.9133186416788,7,63,3.92699312,103.642355204947,-6.13434358625,-6.13434358625,-0.83104818375,0,TRUE,7.36718042,FALSE,0,0,109
"mp-5151","Cd4GeS6",1.3549,22,3,544.640854624437,4.35789598524194,24.756402482929,1,9,7.27927422444608,72.6185658624798,-3.54853077545454,-3.82289441181818,-0.810777493977273,0.0131044894886378,FALSE,1.46282209,FALSE,0.0008812,0,256
"mp-5152","La2SiO5",4.4804,32,3,467.457883107093,5.48319885766359,14.6080588470967,1,14,7.57010749,71.2450475266715,-8.35374336,-8.78311836,-3.77927138546875,0,TRUE,4.79820381,FALSE,0,0,103
"mp-5154","HoNiC2",0,4,3,47.4927059582153,8.65868533106212,11.8731764895538,7,38,3.55878357,106.244264970439,-7.54502635,-7.54502635,-0.34005721625,0,TRUE,6.44004753,FALSE,0,0,101
"mp-5156","ThP2O7",5.3893,40,3,721.104100060047,3.73953191162385,18.0276025015012,3,205,8.96738856,90,-8.08560671075,-8.56650671075,-3.27977828654167,0,TRUE,-0.59032418,FALSE,0,0,153
"mp-5157","Ca(PRu)2",0,5,3,81.2797781080907,6.21407620777675,16.2559556216181,4,139,4.04659572112087,110.679851854075,-7.202744418,-7.202744418,-0.926542423333334,0,TRUE,7.52849473,FALSE,0,0,79
"mp-5158","KNO3",2.9384,20,3,306.249425988001,2.19279840694103,15.3124712994,7,62,5.4109266,90,-5.8726446935,-6.2848446935,-1.42745269235,0,TRUE,-1.25544897,FALSE,0,0,42
"mp-5159","LiGa2Pd",0,4,3,57.1719827297386,7.3426856961458,14.2929956824346,3,225,4.32413708178774,59.9999953201731,-3.81303256,-3.81303256,-0.526783379583333,0,TRUE,4.93520826,FALSE,1.8e-06,0,80
"mp-5160","AgBF5",0,14,3,175.042838201954,4.05397221869277,12.5030598715681,4,85,4.02497731,90,-4.82169876357143,-5.15169876357143,-2.42750696190476,0,TRUE,-2.33476905,FALSE,0.516401,0,88
"mp-5161","Sm(GeRh)2",0,5,3,88.9078302286966,9.36564274871792,17.7815660457393,4,139,5.96626555719516,139.453537059431,-6.63384034,-6.63384034,-0.895188823000001,0,TRUE,6.19909532,FALSE,0,0,139
"mp-5163","LaRhO3",0.593999999999999,20,3,250.620518807492,7.68076693694139,12.5310259403746,7,62,5.50481427,90,-7.561649524,-7.973849524,-2.54577330225,0,TRUE,7.03522013,FALSE,0,0,118
"mp-5165","Th(SiRu)2",0,5,3,86.3982812216919,9.42430519319354,17.2796562443384,4,139,4.21341924423214,111.665859967719,-8.31270813,-8.28430813,-0.921648252,0,TRUE,8.47811509,FALSE,1e-07,0,148
"mp-5166","Ca(AsPd)2",0,5,3,94.9770940834706,7.04170530341685,18.9954188166941,4,139,4.30978983462786,111.223575280386,-5.078157104,-5.078157104,-0.741437042,0,TRUE,5.48564101,FALSE,0,0,99
"mp-5167","Sm(NiGe)2",0,5,3,81.6628066331107,8.39852516989911,16.3325613266221,4,139,4.09375293686661,111.170327459756,-5.804653234,-5.804653234,-0.699670193,0.368176823857143,FALSE,6.2457741,FALSE,1e-07,0,122
"mp-5168","AlSiP3",0.2886,20,3,358.994460696318,2.73809678202093,17.9497230348159,7,62,5.89959,90,-5.3939177665,-5.3939177665,-0.311757490500001,0.0072239124999997,FALSE,7.00545044,FALSE,0.0019418,0,57
"mp-5169","Cu4P2O9",0,30,3,336.73770613988,4.5379973227462,11.2245902046627,5,2,6.26249263203446,99.323260440515,-6.10625733266667,-6.51845733266667,-1.73554865969445,0.0091369600000028,FALSE,3.15195758,TRUE,8.0000002,10,166
"mp-5170","NdCoSi2",0,8,3,137.044469960793,6.2848867771865,17.1305587450992,7,63,4.04125566,104.297152158578,-6.43334359875,-6.39784359875,-0.716068276875,0,TRUE,6.36553925,FALSE,0,0,101
"mp-5172","Zr2(Ni7B2)3",0,29,3,289.093992789626,8.50031815496266,9.96875837205606,3,225,7.42184051369603,60.0019403282179,-6.52957120827586,-6.52957120827586,-0.372515271551724,0,TRUE,7.94962598,FALSE,5.15e-05,0,213
"mp-5173","Ce(SiAu)2",0,5,3,95.4757763920859,10.2652592529667,19.0951552784172,4,139,4.33562045958943,111.432352767449,-5.247922638,-5.219522638,-0.553224795,0,TRUE,7.89476372,TRUE,1.0750495,1,151
"mp-5175","NaInO2",1.9142,4,3,49.5053026102216,5.69576241710599,12.3763256525554,2,166,5.74059991155393,32.8430233611818,-5.1346020925,-5.4781020925,-1.98620548101293,0,TRUE,3.6758438,FALSE,0,0,68
"mp-5176","Y(SiNi)2",0,5,3,73.9201392695772,5.89597298779442,14.7840278539155,4,139,3.94522508114035,110.986087266194,-6.635808912,-6.607408912,-0.831932805333333,0,TRUE,7.11878538,FALSE,2e-07,0,81
"mp-5177","LuSnAu",0,3,3,71.5353386876059,11.3892354331121,23.8451128958686,3,216,4.65956422782057,59.9999957687084,-4.75054340333333,-4.75054340333333,-0.815741945,0,TRUE,5.70865429,FALSE,6.1e-06,0,200
"mp-5178","V2CuS4",0,14,3,240.557149318684,4.05460456537601,17.1826535227631,3,227,6.98089472670144,60,-6.300593095,-6.58802166642857,-1.04333334107143,0.0599154138095237,FALSE,5.44037248,TRUE,6.0000661,6,100
"mp-5181","LuSnPd2",0,4,3,73.9742453541856,11.3700553803546,18.4935613385464,3,225,4.71192722785715,59.9999914722496,-5.625230655,-5.625230655,-0.90265915625,0,TRUE,6.66770723,FALSE,5.4e-06,0,167
"mp-5182","Nd2Fe14B",0,68,3,933.417397677308,7.693236928496,13.726726436431,4,136,8.776004,90,-7.98505139485294,-7.98505139485294,-0.055875890392156,0.001119763713234,FALSE,4.5586106,TRUE,125.2173787,64,65
"mp-5185","K2BeF4",6.9319,28,3,399.743839061017,2.7117761510937,14.2765656807506,7,62,5.62008811,90,-5.00524494785714,-5.26924494785714,-3.32551257228571,0,TRUE,-2.60811254,FALSE,0,0,50
"mp-5186","ScNiSn",0,12,3,212.361570432944,6.95486144024142,17.6967975360786,7,62,4.31130236,90,-6.00239500666667,-6.00239500666667,-0.628335793333334,0.0088846266666662,FALSE,7.57811411,FALSE,1e-07,0,99
"mp-5189","AlAsO4",3.865,18,3,246.694403362853,3.35011237224415,13.7052446312696,2,152,5.0270548750897,90.0138201473113,-6.68102355166667,-7.13902355166667,-2.440448705,0.005237044999995,FALSE,0.00088988,FALSE,0,0,70
"mp-5190","ZnSnAs2",0.1913,8,3,202.412082640601,5.47948791033728,25.3015103300751,4,122,5.86348283021433,114.025255999153,-3.8391048975,-3.8391048975,-0.19221682875,0,TRUE,3.51053684,FALSE,0,0,113
"mp-5193","SrZrS3",1.1777,20,3,474.616282635148,3.84911366127476,23.7308141317574,7,62,6.76185335,90,-6.306456288,-6.608256288,-2.07894755120833,0,TRUE,2.90246007,FALSE,0,0,110
"mp-5197","ErB2Ir3",0,6,3,79.9273365890316,15.9043932524442,13.3212227648386,6,191,3.14622798506827,60.0042524535488,-8.10321552666667,-8.10321552666667,-0.696248044722222,0,TRUE,7.56145903,FALSE,1e-07,0,227
"mp-5200","PrBRh3",0,5,3,76.5609089543115,9.98643517499376,15.3121817908623,3,221,4.24621053,90,-7.381872872,-7.381872872,-0.671228644833333,0,TRUE,5.76641024,FALSE,0.0179892,0,154
"mp-5206","SrV6O15",0.0158,88,3,1132.26995815657,3.71484896067412,12.866704069961,1,14,7.381212,70.8094908180849,-7.48438004613636,-8.41642550068182,-2.4894591124053,0.012687856136365,FALSE,2.08511743,TRUE,7.9992506,24,153
"mp-5207","Sc(PO3)3",5.1585,104,3,1547.21270573563,2.42014109949669,14.877045247458,3,220,12.6199404223486,109.471220634491,-7.66070118269231,-8.13631656730769,-2.97534925759615,0,TRUE,-0.38063795,FALSE,0.0650376,0,52
"mp-5213","CdSnP2",0.2695,8,3,204.351313218898,4.76289313366444,25.5439141523622,4,122,5.93104729807405,114.449962623368,-4.03502815625,-4.03502815625,-0.0952614991666669,0,TRUE,3.73822178,FALSE,0,0,113
"mp-5214","TiTe3O8",2.7258,48,3,667.476283370849,5.55933105786343,13.9057559035594,3,206,9.53573741489474,109.471247521053,-6.2814281125,-6.7394281125,-1.99785149694444,0,TRUE,3.5323217,FALSE,0,0,182
"mp-5215","NdNiGe2",0,8,3,148.222220539717,7.80214023492933,18.5277775674646,7,63,4.1887948,104.293938223004,-5.69342944625,-5.69342944625,-0.744844490625,0,TRUE,6.27476188,FALSE,0,0,120
"mp-5219","Ho(SiOs)2",0,5,3,82.9116169821056,12.0479627484657,16.5823233964211,4,139,4.16677380671157,111.795065799788,-8.299937504,-8.299937504,-0.722381546000001,0,TRUE,7.04700159,FALSE,0,0,157
"mp-5221","HfAlCo2",0,4,3,53.7458020015865,9.98990139058623,13.4364505003966,3,225,4.23597284874783,60.0000007142438,-7.5655283725,-7.5655283725,-0.585678260000001,0,TRUE,6.3576831,TRUE,1.0004176,3,112
"mp-5222","ReTeS",0.0750999999999999,12,3,260.967720899463,8.80314187614545,21.7473100749553,3,216,7.17299706948898,59.9999972175529,-6.95174320416667,-7.2600765375,-0.685315555763889,0,TRUE,7.13347163,FALSE,0,0,143
"mp-5223","GdAlO3",3.2382,20,3,207.092821954866,7.44838087059626,10.3546410977433,7,62,5.24264768000058,89.9999929273606,-9.8113662665,-10.2235662665,-3.69121342575,0.0083843889000192,FALSE,4.37351046,TRUE,27.9999996,4,93
"mp-5224","BaSi2O5",4.6334,48,3,732.598713142037,3.71949164424794,15.2624731904591,1,15,4.65736664,97.3651468688412,-7.61669722041667,-8.04607222041667,-3.35819040088542,0.0033261598958329,FALSE,5.44665692,FALSE,0.0005605,0,102
"mp-5226","K2SeO4",3.612,28,3,473.50071849589,3.10229889415348,16.9107399462818,7,62,5.96881945,90,-5.06009163285714,-5.45266306142857,-1.80931103047768,0.0001120011904758,FALSE,-0.7769388,FALSE,0,0,77
"mp-5227","Dy(NiP)2",0,5,3,69.1360392985238,8.21032351673813,13.8272078597048,4,139,3.85349050443179,110.926143227068,-6.41395035,-6.41395035,-1.01521730733333,0,TRUE,8.6849219,FALSE,0,0,109
"mp-5229","SrTiO3",1.772,5,3,59.9004503066428,5.08651172375453,11.9800900613286,3,221,3.91270131,90,-8.024930902,-8.437130902,-3.55212058125,0.0008920139999997,FALSE,3.31488289,FALSE,0,0,76
"mp-5238","GaCuS2",0.7056,8,3,148.550647801432,4.41315815257741,18.568830975179,4,122,5.31416219632433,114.269197188847,-4.42730054,-4.67880054,-0.8287499334375,0,TRUE,4.40697034,FALSE,0,0,76
"mp-5239","NdSiRu",0,6,3,123.700562590703,7.34009967218844,20.6167604317839,4,129,4.22194715,90,-7.269516245,-7.24584957833333,-0.756560244166665,0,TRUE,5.75525641,FALSE,0.0001895,0,118
"mp-5241","DyPS4",2.1597,48,3,1092.41382125159,3.91244761244848,22.7586212760747,4,142,12.1690752218397,127.793581671355,-5.45626469333333,-5.79159802666667,-1.36394989097222,0,TRUE,3.03366431,FALSE,0,0,129
"mp-5244","Ti2SbP",0,8,3,144.229624353724,5.72129931614866,18.0287030442155,6,194,3.63660026,90,-7.24036861,-7.28836861,-0.955046665,0,TRUE,7.7988935,FALSE,1e-07,0,88
"mp-5245","Zn(CN)2",5.9232,10,3,210.268487608383,1.85496191320094,21.0268487608383,3,215,5.946454,90,-7.079507847,-7.223907847,0.054105041999999,0.2557681055,FALSE,-3.98244139,FALSE,0,0,43
"mp-5246","KNbO3",2.0585,5,3,66.3997057429457,4.50155329750489,13.2799411485891,7,38,4.00636436,90.2036684350397,-7.655104666,-8.067304666,-2.85695064185,0.0001345700000001,FALSE,1.2544468,FALSE,0,0,76
"mp-5248","Na5SnAs3",0.7194,36,3,878.403117012943,3.46642838194395,24.4000865836929,1,14,7.60283908,58.3077588856715,-3.15207298027778,-3.15207298027778,-0.418789253917625,0,TRUE,2.37532723,FALSE,0,0,160
"mp-5251","Ca4CN4",1.6429,36,3,566.572491626785,2.67703265649087,15.7381247674107,7,62,3.56362109,90,-6.47206101138889,-6.63250545583333,-1.01061159888889,0,TRUE,3.0561701,FALSE,0,0,87
"mp-5256","KCuC2",1.9346,8,3,187.354663771976,2.24529604989419,23.419332971497,4,131,4.915533,90,-5.640296495,-5.640296495,0.2764376555,0.2959983019375,FALSE,-0.35239658,FALSE,0.000434,0,54
"mp-5259","RbAlF4",6.9442,12,3,162.983132411023,3.83986831024905,13.5819277009185,4,127,5.09112282,90,-5.39252944583333,-5.70052944583333,-3.63852515041667,0.0003130476666619,FALSE,-1.40561699,FALSE,0,0,77
"mp-5260","Ho(GeRu)2",0,5,3,87.4886677562658,9.72443339193584,17.4977335512532,4,139,4.23317031228688,111.690499580817,-7.119579062,-7.119579062,-0.644125129999999,0,TRUE,6.19007936,FALSE,3e-06,0,143
"mp-5263","Ca4P2O9",4.7474,60,3,789.936264299197,3.07963722488378,13.1656044049866,1,4,11.9458214,89.1519761309031,-7.13952960033333,-7.55172960033333,-3.32711607136111,0,TRUE,2.2085094,FALSE,0,0,139
"mp-5267","Np(Al2Cu)4",0,13,3,194.366049764319,6.04046547064513,14.9512345972553,4,139,6.69345438659405,98.2209456103087,-4.78548940538462,-4.78548940538462,-0.223242251442308,0,TRUE,9.05374026,TRUE,4.305397,1,100
"mp-5268","U2SbN2",0,5,3,93.0890003589286,11.1636948071305,18.6178000717857,4,139,6.78256466201576,146.818738858655,-9.881935934,-10.064735934,-1.387773712,0,TRUE,9.81221087,TRUE,2.9999474,2,150
"mp-5273","KPrTe2",1.28,4,3,153.506464555741,4.70779184500954,38.3766161389354,2,166,8.61575027234998,31.3337521486744,-4.4596388425,-4.6706388425,-1.62615972033333,0,TRUE,2.46391478,FALSE,0,0,130
"mp-5274","ThTi2O6",2.94,9,3,116.292592150596,6.05097943050116,12.921399127844,1,12,3.82692671736999,71.6259852835958,-9.20937617666667,-9.66737617666667,-3.79126789324074,0,TRUE,2.68599021,FALSE,0,0,152
"mp-5279","Ca3TeO6",3.2598,20,3,260.385300803723,4.38537666851693,13.0192650401862,1,14,5.57370773534839,90,-6.284713827,-6.696913827,-2.81289004691667,0,TRUE,3.11991914,FALSE,0,0,132
"mp-5280","In2Ge2O7",1.7955,11,3,143.251875266912,5.64415693953068,13.0228977515375,1,12,4.95382364141834,105.646175230432,-6.11393154545455,-6.55111336363636,-2.06236389556818,0,TRUE,2.40976589,FALSE,1.7e-06,0,129
"mp-5282","AgCO2",2.3498,16,3,224.739087064003,4.48874038762171,14.0461929415002,1,14,5.945906,70.8669349155551,-6.254018388125,-6.597518388125,-1.10886865854167,0.218889290208334,FALSE,0.7476156,FALSE,0.0031412,0,61
"mp-5284","U(CrSi)2",0,5,3,78.5368009750291,8.41915568826286,15.7073601950058,4,139,5.80361239789383,140.466865288334,-8.519424572,-8.491024572,-0.201396369999999,0.105390930166669,FALSE,9.17430065,TRUE,3.9878853,3,130
"mp-5285","SrSO4",5.9178,24,3,306.724574002872,3.97766803193024,12.780190583453,7,62,5.34282259,90,-6.49491278458333,-6.95291278458333,-2.68412975704861,0,TRUE,1.56816395,FALSE,0,0,78
"mp-5288","Y(FeSi)2",0,5,3,73.6357412179172,5.79027763394166,14.7271482435834,4,139,3.95070383089495,111.117269519531,-7.528330588,-7.499930588,-0.648500669333332,0,TRUE,6.45403619,FALSE,0.0029056,0,79
"mp-5292","Ca(SiNi)2",0,5,3,75.6751893262184,4.68780580640632,15.1350378652437,4,139,3.96235732058609,110.815376700651,-5.528382376,-5.499982376,-0.616680516,0,TRUE,6.72812912,FALSE,0,0,62
"mp-5295","LaNbO4",3.9322,12,3,170.488236372959,5.76231132944452,14.2073530310799,4,88,5.41976745860339,112.943018092981,-8.90473220416667,-9.36273220416667,-3.55872103916667,0,TRUE,3.34483666,FALSE,0,0,122
"mp-5299","La2RuO5",0,32,3,429.524600095026,7.09607548440628,13.4226437529696,1,14,5.914876,79.5758728061895,-8.01575489375,-8.44512989375,-2.96014735546875,0.0230889371875111,FALSE,7.32671684,TRUE,8.0001759,4,133
"mp-5302","Gd2Ti2O7",0,22,3,264.275071933013,6.56273010011714,12.0125032696824,3,227,7.20317112707234,60,-10.4369315127273,-10.8741133309091,-3.73138155890151,0.0086939995454571,FALSE,3.48380076,TRUE,28.0000004,4,134
"mp-5304","LaAlO3",3.4924,5,3,54.1366515334802,6.56052294679775,10.827330306696,3,221,3.7829488,90,-8.008298052,-8.420498052,-3.71616823825,0.0067885039999993,FALSE,7.93942141,FALSE,0,0,86
"mp-5305","CuAsS",0,12,3,231.048954474395,4.90244234297546,19.2540795395329,7,62,3.78164031,90,-4.46985414833333,-4.637520815,-0.339262501041667,0,TRUE,5.01009647,FALSE,0,0,78
"mp-5306","Nb4CrS8",0,26,3,471.072871684824,4.79501919433921,18.1181873724932,6,194,6.70030072039953,89.9998324965795,-7.48485446115385,-7.79439292269231,-1.39824934076923,0,TRUE,5.47565869,TRUE,5.00507,4,259
"mp-5308","LaTa3O9",2.6613,52,3,650.914950528358,8.42616804755345,12.5175952024684,7,62,6.620999,90,-9.58017210884615,-10.0557874934615,-3.51505377067308,0.012235716538461,FALSE,3.50059144,FALSE,0.0034052,0,267
"mp-5309","KAuF4",2.3647,12,3,204.246000479449,5.07412922531059,17.020500039954,4,140,6.00508245817942,115.097245933948,-3.77196601333333,-4.07996601333333,-2.0749332105,0,TRUE,-2.52492803,FALSE,0,0,125
"mp-5311","UBN",0,6,3,70.8909236575308,12.3137643554178,11.8151539429218,7,63,6.20071146001342,90,-9.84045957333333,-9.96079290666667,-1.19169400472222,0,TRUE,11.9347842,TRUE,3.6672125,2,104
"mp-5313","HoCo3B2",0,6,3,63.4236105047344,9.5131770073385,10.5706017507891,6,191,4.96665704003935,90,-7.0524833,-7.0524833,-0.508125667222222,0,TRUE,5.42691689,FALSE,2.6e-06,0,126
"mp-5318","MnCoSb",0,3,3,49.9326936008287,7.83604590730324,16.6442312002762,3,216,4.13332983025356,59.9999843828457,-6.90511393666667,-6.96911393666667,-0.169335827643679,0.0117887779166663,FALSE,6.97344862,TRUE,3.1140976,2,103
"mp-5321","Ho7Co6Sn23",0,36,3,793.163576667044,8.87345025647169,22.0323215740845,2,164,9.65213981562163,90.000269620766,-5.04105670416667,-5.04105670416667,-0.403642217361112,0,TRUE,7.75683434,FALSE,1.32e-05,0,587
"mp-5322","Pr3IrO7",0,22,3,312.900516410625,7.71558465693974,14.2227507459375,7,63,6.6838511670705,90,-7.79202504727273,-8.22920686545454,-2.97393664511364,0,TRUE,3.39631803,TRUE,3.9968123,2,243
"mp-5323","CeAlO3",0,5,3,53.2435629339919,6.70832035503118,10.6487125867984,3,221,3.76203913,90,-8.096305242,-8.508505242,-3.60475901825,0.0171150289999992,FALSE,10.30433035,TRUE,1.0000001,1,87
"mp-5326","Yb(CoSi)2",0,5,3,72.142205190694,7.98888201026199,14.4284410381388,4,139,3.85849927458582,110.299455982704,-6.002577854,-5.974177854,-0.652801868,0,TRUE,5.73870774,FALSE,5e-07,0,111
"mp-5327","Na4UO5",2.1446,10,3,128.716595198481,5.28910888904782,12.8716595198481,4,87,4.62160100958094,80.7419372381164,-6.476293776,-6.819793776,-2.68829830199569,0,TRUE,2.17097475,FALSE,0,0,157
"mp-5328","CdPS3",1.7562,10,3,230.001815523813,3.45937751370959,23.0001815523813,1,12,6.2533694070956,98.186042809794,-4.154463506,-4.456263506,-0.707155132541666,0,TRUE,1.91434382,FALSE,0,0,95
"mp-5330","LaAlSi2",0,8,3,173.422553683732,4.25245725540586,21.6778192104665,2,164,4.16729539,90,-5.40482945125,-5.36932945125,-0.4862747025,0.0038156224999994,FALSE,7.81416942,FALSE,2.87e-05,0,84
"mp-5331","AlPO4",5.6187,18,3,231.745176873954,2.62151159040039,12.874732048553,2,152,4.94223742717487,89.9997108949678,-7.47871541777778,-7.93671541777778,-3.11244322083333,0.0092055738889031,FALSE,0.44850713,FALSE,0,0,52