"material_id","formula_pretty","band_gap","nsites","nelements","volume","density","density_atomic","crystal_symmetry","symmetry_number","sides_abc","angles_abc","uncorrected_energy_per_atom","energy_per_atom","formation_energy_per_atom","energy_above_hull","is_stable","efermi","is_magnetic","total_magnetization","num_magnetic_sites","atomic_number"
"mp-1246","Fe4C",0,5,2,56.69156590307,6.89477256515777,11.338313180614,3,215,3.841547,90,-8.10644729,-8.10644729,0.5153027765,0.515302776500002,FALSE,5.02507073,TRUE,8.2820201,4,84
"mp-1247","Sb2Ir",0.5099,12,2,268.661181664124,10.7728002502076,22.3884318053437,1,14,6.59216251,114.775853682672,-6.0797990275,-6.2077990275,-0.508986807499999,0,TRUE,8.32211357,FALSE,0,0,128
"mp-1249","MgF2",6.8256,6,2,64.9179099092111,3.18724319965424,10.8196516515352,4,136,3.04778351,90,-5.32915959666667,-5.63715959666667,-3.82941360166667,0,TRUE,-0.91198611,FALSE,0,0,21
"mp-1250","Lu2In",0,6,2,156.168027589646,9.88344239460256,26.0280045982743,6,194,5.24222883,90,-4.25886043333333,-4.25886043333333,-0.32766551,0,TRUE,4.7658129,FALSE,0.0003154,0,120
"mp-1251","VRh",0,4,2,53.8016096340184,9.49670299892585,13.4504024085046,4,123,3.62415463,90,-8.584676355,-8.584676355,-0.360569385,0.0255926725000001,FALSE,7.0495928,FALSE,0.0006449,0,68
"mp-1252","ZrBe2",0,3,2,41.0441199321495,4.41990659524507,13.6813733107165,6,191,3.8233687,90,-5.50610164666667,-5.50610164666667,-0.163926193333334,0.028948296666666,FALSE,3.54143003,FALSE,0,0,44
"mp-1253","BaSe",1.9488,2,2,74.0933126073389,4.84730673334938,37.0466563036694,3,225,4.71445245728058,60.000008954235,-4.75520499,-4.99120499,-2.28376178117187,0,TRUE,1.13655998,FALSE,0,0,90
"mp-1254","LuTe",0,2,2,54.3739243604278,9.24017035139027,27.1869621802139,3,225,4.25241102309483,59.9999995066738,-4.91983234,-5.13083234,-1.29870413333333,0.0419758950000002,FALSE,6.79683176,FALSE,9.6e-06,0,123
"mp-1256","HoGa2",0,3,2,61.2083394994977,8.25751481645881,20.4027798331659,6,191,4.15613014,90,-4.17300232,-4.17300232,-0.626802015,0,TRUE,3.54365905,FALSE,2.18e-05,0,98
"mp-1259","YbAl3",0,4,2,79.069591595961,5.33392633423992,19.7673978989902,3,221,4.2921,90,-3.36632799,-3.36632799,-0.1722440475,0.0854225175,FALSE,4.96859827,FALSE,2.1e-06,0,96
"mp-1260","SrPd5",0,6,2,111.814393209569,9.20337034271262,18.6357322015948,6,191,5.42730703,90,-4.97210751166667,-4.97210751166667,-0.373957094444444,0,TRUE,2.98979878,FALSE,5.1e-05,0,222
"mp-1261","EuZn",0,2,2,52.3639501696302,6.8932224813969,26.1819750848151,3,221,3.74119892,90,-6.03162174,-6.03162174,-0.273249035000001,0,TRUE,2.48726977,TRUE,7.2045238,1,93
"mp-1263","URu3",0,4,2,62.625820523937,14.3510830979928,15.6564551309842,3,221,3.97116388,90,-10.1057025225,-10.1057025225,-0.327048115,0,TRUE,10.12595902,FALSE,0.0002044,0,180
"mp-1264","CdAu3",0,4,2,72.3355632004033,16.1452382930372,18.0838908001008,3,221,4.16047153,90,-2.816273885,-2.816273885,-0.130139945,0,TRUE,4.30501554,FALSE,7.5e-06,0,206
"mp-1265","MgO",4.4292,2,2,18.4427700910204,3.62890338195232,9.2213850455102,3,225,2.9656084632979,59.9999915226412,-5.98402468,-6.32752468,-3.054040299375,0,TRUE,2.7374354,FALSE,0,0,20
"mp-1266","Na2Se",2.0153,3,2,77.2135617348962,2.68692416306569,25.7378539116321,3,225,4.77972314746001,60.0000133784565,-3.10890105666667,-3.26623439,-1.21924703514907,0,TRUE,0.07276857,FALSE,0,0,45
"mp-1267","NaC",3.3844,16,2,290.875220311095,1.5984763920863,18.1797012694434,4,142,7.93140657706362,129.33704355326,-5.044131179375,-5.044131179375,0.231464213599137,0.231464213599137,FALSE,-0.52088126,FALSE,0.0001311,0,17
"mp-1269","SmS",0,2,2,45.3784853776115,6.67549471305094,22.6892426888058,3,225,4.00363922147594,60.000003997233,-6.45034239,-6.70184239,-2.2743243890625,0,TRUE,5.93787583,FALSE,2.5e-06,0,78
"mp-1270","Dy2S3",0.5938,20,2,428.893641569195,6.52292955053053,21.4446820784597,7,62,3.85878794,90,-6.392908136,-6.694708136,-2.370123479875,0,TRUE,4.20957208,FALSE,0,0,98
"mp-1272","Cr3Ru",0,8,2,99.4222090025524,8.58672028767384,12.427776125319,3,223,4.632632,90,-9.47639672375,-9.47639672375,0.0819895137500008,0.0819895137500008,FALSE,7.31194812,FALSE,0.0669046,0,92
"mp-1273","CsGe",1.3329,64,2,2586.31647992426,4.22304082880865,40.4111949988166,3,218,13.72652343,90,-2.970936935,-2.970936935,-0.211721821465517,0,TRUE,2.14030039,FALSE,2e-07,0,87
"mp-1274","CoS",0,4,2,49.8431669750943,6.06326070183661,12.4607917437736,6,194,3.34662948292472,90,-5.9050969375,-6.1565969375,-0.5342131065625,0.184856167708327,FALSE,8.14215727,FALSE,4.95e-05,0,43
"mp-1275","SiMo3",0,8,2,116.908304421346,8.97410028654948,14.6135380526682,3,223,4.88969519,90,-9.80507410625,-9.80507410625,-0.314507016250001,0,TRUE,9.33351175,FALSE,3e-07,0,98
"mp-1278","Zr2Si",0,6,2,116.436408290255,6.00497914203167,19.4060680483758,4,140,5.31468005366146,75.8919506748607,-8.28574738,-8.26208071333333,-0.755174283333333,0,TRUE,5.65898039,FALSE,2e-07,0,54
"mp-1279","TaN",0,6,2,68.478810401186,14.1823300261502,11.4131350668643,6,189,5.20849575,90,-11.2692184883333,-11.4497184883333,-1.35258221083334,0,TRUE,8.1232589,FALSE,2e-07,0,80
"mp-1280","ErTe",0,2,2,56.2895828822426,8.69832149339072,28.1447914411213,3,225,4.30177410858103,60.0000101499457,-5.06137668,-5.27237668,-1.41686432833333,0,TRUE,6.63163134,FALSE,9.2e-06,0,120
"mp-1281","VIr",0,4,2,54.8253251747407,14.7294772019659,13.7063312936852,4,123,3.63272957,90,-9.467773375,-9.467773375,-0.506603250000001,0.0280828300000006,FALSE,8.25283533,FALSE,3e-07,0,100
"mp-1282","VC",0,2,2,18.0230933402203,5.80003584596311,9.01154667011013,3,225,2.94294023953223,60,-9.565958805,-9.565958805,-0.409673023750001,0.0881094024305557,FALSE,8.05075397,FALSE,0.0008287,0,29
"mp-1285","PtO2",0.6464,6,2,64.7404117275227,11.6489793836949,10.7900686212538,7,58,3.15683565,90,-5.7909549,-6.2489549,-0.927451319166667,0,TRUE,4.60796705,FALSE,0,0,86
"mp-1287","KS",1.469,12,2,366.87539706964,1.93258159094945,30.5729497558033,6,189,8.51254391,90,-3.5552866975,-3.8067866975,-1.1833622905625,0,TRUE,0.84383388,FALSE,0,0,35
"mp-1288","AgO",0.1826,16,2,227.267353080008,7.24035321742218,14.2042095675005,4,88,6.80213732278701,118.52261557036,-3.947340696875,-4.290840696875,-0.401218339583333,0.0445441881250001,FALSE,1.70439469,FALSE,0.0061932,0,55
"mp-1291","ErIn3",0,4,2,96.9606666368349,8.76354770300518,24.2401666592087,3,221,4.59407976,90,-3.58228327,-3.58228327,-0.37659077,0,TRUE,6.90396024,FALSE,3.5e-06,0,166
"mp-1294","YCo2",0,6,2,92.2727081403527,7.44214382190081,15.3787846900588,3,227,5.07243977849378,59.9936589504089,-7.07127312333333,-7.07127312333333,-0.176904222222222,0,TRUE,4.82123832,TRUE,4.0484836,6,66
"mp-1295","Yb4Sb3",0,14,2,409.104711191368,8.58421026476096,29.2217650850977,3,220,8.10000842691365,109.471223529674,-3.63153119642857,-3.71381691071429,-1.06446879071429,0,TRUE,3.28035879,FALSE,1e-07,0,312
"mp-1296","ErB6",0,7,2,67.61878643644,5.70037782616582,9.65982663377714,3,221,4.07401344,90,-6.74417184857143,-6.74417184857143,-0.366447643571427,0.0641711866071439,FALSE,6.90686539,FALSE,0,0,93
"mp-1297","Tl9Pd13",0,22,2,407.707411066146,13.1264905167638,18.5321550484612,2,164,9.07016799,90,-4.24267891772727,-4.24267891772727,-0.215303833636363,0,TRUE,6.32625456,FALSE,2e-07,0,648
"mp-1298","KAu5",0,6,2,128.728981928769,13.2081963385821,21.4548303214615,6,191,5.73399443,90,-3.13988837666667,-3.13988837666667,-0.2265868855,0,TRUE,3.33449983,FALSE,9e-07,0,335
"mp-1299","SiPt2",0,3,2,46.4438019198904,14.9541219233118,15.4812673066301,4,139,3.94218988605171,118.836597600587,-6.57038599,-6.57038599,-0.714524433333332,0,TRUE,7.764209,FALSE,7e-07,0,92
"mp-1301","Yb2S3",0,10,2,269.031662302052,5.45969131957383,26.9031662302052,2,167,6.70171951598998,64.9885235955618,-4.321016843,-4.622816843,-1.525103610875,0.521716184999999,FALSE,0.7120127,TRUE,3.5968604,10,102
"mp-1302","PrO2",0,3,2,46.9116373643177,6.12039850287786,15.6372124547726,3,225,4.04823016291342,60,-7.45995024,-7.91795024,-3.02652251416667,0.0866941749999963,FALSE,1.54838968,TRUE,0.9989689,2,67
"mp-1304","Zr5Si4",0,36,2,665.832740124963,5.67081371637213,18.4953538923601,4,92,7.14298076,90,-8.06465916861111,-8.03310361305555,-0.873128583055554,0.0013379625000009,FALSE,6.06798445,FALSE,1.7e-06,0,202
"mp-1306","ThAl3",0,8,2,169.467316145005,6.13357161908675,21.1834145181256,6,194,6.53795164009839,90.0002789551937,-5.06456086875,-5.06456086875,-0.40191443375,0,TRUE,7.35700786,FALSE,1e-07,0,116
"mp-1307","LiGa",0,4,2,58.4882185390429,4.35313538971418,14.6220546347607,3,227,4.35706886891279,60.0000020079686,-2.7837266825,-2.7837266825,-0.315217237916667,0,TRUE,4.14649114,FALSE,3.7e-06,0,34
"mp-1310","TbRh2",0,6,2,105.613175660518,11.4693825726993,17.6021959434197,3,227,5.3057215150118,59.9999950377286,-7.19120181666667,-7.19120181666667,-0.736874536666666,0,TRUE,5.47673793,FALSE,2.93e-05,0,110
"mp-1311","Cr5S6",0,22,2,350.772778211198,4.28299420301707,15.9442171914181,2,163,5.94485126064059,90,-7.23872004590909,-7.51308368227273,-0.869089450340908,0.0344980213636372,FALSE,6.33238741,TRUE,30.5320315,10,176
"mp-1314","Li12Si7",0,152,2,2396.02311374804,1.55180175668065,15.7633099588687,7,62,8.531238,90,-3.44724601605263,-3.42108812131579,-0.216651247105264,0.0035403334962404,FALSE,3.2662577,FALSE,0.0008505,0,84
"mp-1315","MgS",2.7574,2,2,35.3306667061707,2.64938638046968,17.6653333530853,3,225,3.68317460592663,59.999996646034,-4.29441824,-4.54591824,-1.6775532815625,0,TRUE,3.48975604,FALSE,0,0,28
"mp-1317","CoSb3",0.1633,16,2,371.000889939359,7.59483442726883,23.1875556212099,3,204,7.84024959507617,109.47142713645,-5.06156556375,-5.20556556375,-0.331735185,0,TRUE,7.52693137,FALSE,0,0,129
"mp-1319","ZrTe",0,4,2,98.5802545018818,7.37197935926899,24.6450636254704,6,194,3.73592975165821,90,-6.46981439,-6.68081439,-0.835311128333333,0.27331028,FALSE,7.52078469,FALSE,0.002327,0,92
"mp-1321","CdSb",0.0200999999999997,16,2,471.399295435365,6.59907806447886,29.4624559647103,7,61,8.33310615,90,-2.56335965625,-2.65935965625,-0.13341415625,0,TRUE,3.82295437,FALSE,0,0,99
"mp-1323","AlF3",7.3085,64,2,775.877826839687,2.87564183428469,12.1230910443701,4,129,10.326584,90,-5.88010069859375,-6.22660069859375,-3.85659751546875,0.0137722376562505,FALSE,-1.28942306,FALSE,4e-07,0,31
"mp-1326","Nb3Sn",0,8,2,150.956657829618,8.74352443494224,18.8695822287023,3,223,5.32456448,90,-8.74223381,-8.74223381,-0.163862066250001,0,TRUE,6.67674148,FALSE,0.0042066,0,132
"mp-1327","NdMg",0,2,2,58.9308439404921,4.74927659853047,29.465421970246,3,221,3.89147478,90,-3.293095195,-3.293095195,-0.108881453749999,0,TRUE,3.2388383,FALSE,1.07e-05,0,72
"mp-1328","SrRh2",0,6,2,114.310791756908,8.52506804235406,19.0517986261514,3,227,5.4475497543721,60.0001012149671,-5.73740272833333,-5.73740272833333,-0.26469966388889,0,TRUE,4.31676066,FALSE,0.0042298,0,83
"mp-1329","LaTe2",0,24,2,775.577568047444,6.75035025516077,32.3157320019768,4,129,9.14142881209745,90,-5.13926466833333,-5.42059800166667,-1.67972503777778,0.0029458170833249,FALSE,7.90090824,FALSE,0.0001361,0,109
"mp-1330","AlN",4.4175,2,2,16.8428121637521,4.04104556915392,8.42140608187604,3,225,2.87724294849218,60,-7.272929745,-7.453429745,-1.4123943675,0.1720026375,FALSE,9.78156227,FALSE,0.00051,0,20
"mp-1331","YCd2",0,3,2,73.277576054344,7.1093693221931,24.4258586847813,6,191,4.90301252,90,-3.10255081666667,-3.10255081666667,-0.331800605555556,0,TRUE,2.95578528,FALSE,0.000872,0,87
"mp-1332","Si3Mo5",0,16,2,227.829221663343,8.22082253782879,14.239326353959,4,140,4.89711668803696,83.444906742264,-9.213604143125,-9.186979143125,-0.373953563125001,0,TRUE,9.71255204,FALSE,1e-07,0,196
"mp-1334","Y2C",0,3,2,69.4295641250669,4.53996096458236,23.143188041689,2,166,6.46417064534114,32.5234616677046,-7.67901470333333,-7.67901470333333,-0.291812130277777,0,TRUE,3.24914565,FALSE,0.3011953,0,45
"mp-1335","VFe",0,2,2,25.3993864466921,6.98139521628385,12.699693223346,3,221,2.93950639,90,-8.90510454,-8.90510454,-0.1281409,0.0215809068750019,FALSE,6.37671173,TRUE,0.8634373,2,49
"mp-1336","PdO",0,4,2,50.0842735213874,8.1176058637618,12.5210683803468,4,131,3.05360411,90,-5.5102478125,-5.8537478125,-0.790462551875,0,TRUE,3.650829,FALSE,8e-07,0,54
"mp-1337","MoAs2",0,6,2,101.819747248837,8.01676720953802,16.9699578748061,1,12,3.3245927133967,79.5970080337096,-6.973754735,-6.973754735,-0.252459095,0,TRUE,7.76821141,FALSE,0,0,75
"mp-1339","NbIr3",0,4,2,59.9329913764091,18.5511545692341,14.9832478441023,3,221,3.91340971,90,-9.758132035,-9.758132035,-0.603980139999999,0.0081197512500015,FALSE,9.23170926,FALSE,1.1e-06,0,195
"mp-1340","Ga2Se3",1.0436,10,2,251.713198406908,4.96520666164767,25.1713198406908,1,9,6.72479408396938,80.8822634193625,-3.893732305,-4.176932305,-0.86814700940625,0,TRUE,1.84569574,FALSE,0,0,99
"mp-1341","Te2Rh3",0,10,2,180.694194776888,10.3645319619323,18.0694194776888,7,63,3.71834305,90,-5.931400402,-5.931400402,-0.255493322666666,0.159721351500001,FALSE,8.46412552,FALSE,3.7e-06,0,142
"mp-1342","BaO",2.0906,2,2,43.4535752050039,5.85922967074569,21.726787602502,3,225,3.94621002955085,59.9999917402444,-5.91361068,-6.25711068,-2.824278854375,0,TRUE,1.72769767,FALSE,0,0,64
"mp-1343","NdNi2",0,6,2,95.2698844847546,9.12029747274858,15.8783140807924,3,227,5.12653094597521,59.9999950705361,-5.75316896833333,-5.75316896833333,-0.310362037499999,0.0054272701190472,FALSE,6.29802269,FALSE,5e-06,0,88
"mp-1344","Sm3Se4",0,14,2,344.473699493494,7.39389174168824,24.6052642495353,3,220,7.64878831989356,109.47122425694,-5.84931727428571,-6.11903156,-2.09911665776786,0.036602773928573,FALSE,5.54256978,FALSE,1.23e-05,0,226
"mp-1345","CaP",0.4062,12,2,290.250058871794,2.43894992497928,24.1875049059828,6,189,7.65361331,90,-4.7999289525,-4.7999289525,-1.09047775916667,0,TRUE,4.17311461,FALSE,0,0,35
"mp-1346","B6O",1.9938,14,2,102.43459585845,2.62177352701799,7.31675684703215,2,166,5.13603259545818,63.1221507192993,-7.13917426642857,-7.23731712357143,-0.80545436125,0,TRUE,5.08041009,FALSE,0,0,33
"mp-1347","Th3P4",0.261699999999999,14,2,326.141846099345,8.35009290805165,23.2958461499532,3,220,7.51062591111492,109.471220172635,-7.70189425428571,-7.70189425428571,-1.4312107147619,0,TRUE,7.26887033,FALSE,0,0,225
"mp-1349","SrPt2",0,6,2,120.037387588825,13.2189754457226,20.0062312648041,3,227,5.53703450494215,59.9999970349166,-5.46288218833333,-5.46288218833333,-0.852295490555555,0,TRUE,5.61984581,FALSE,6.11e-05,0,116
"mp-1352","ZrN",0,2,2,24.1524431448101,7.23486594329123,12.0762215724051,3,225,3.24458237530786,59.9999824237332,-10.121745995,-10.302245995,-1.8601482175,0,TRUE,7.09618375,FALSE,7e-07,0,47
"mp-1355","Y6Mn23",0,29,2,441.607620888908,6.75714229350743,15.2278489961693,3,225,8.54772455987159,60,-8.50787178034483,-8.50787178034483,0.0964447161236617,0.0978609220785458,FALSE,4.86375348,TRUE,35.2978771,23,220
"mp-1356","Sb2Pd",0,12,2,277.332594377734,8.38111426851684,23.1110495314778,3,205,6.52129187,90,-4.83057928333333,-4.95857928333333,-0.47928452,0,TRUE,6.98855154,FALSE,1e-07,0,97
"mp-1357","P3Rh",0,16,2,257.881251749672,5.04384132205735,16.1175782343545,3,204,6.94513275963397,109.47121473512,-6.4787015975,-6.4787015975,-0.57764775,0,TRUE,7.94880929,FALSE,1e-07,0,75
"mp-1358","DyIr2",0,6,2,106.973757641748,16.9799639439302,17.828959606958,3,227,5.32840704947275,60.0000010265188,-8.256208425,-8.256208425,-0.828323358333334,0,TRUE,6.93877704,FALSE,2.28e-05,0,143
"mp-1359","NbIr",0,4,2,64.1883717209426,14.7521583301532,16.0470929302357,4,123,3.87415123,90,-9.98948759,-9.98948759,-0.51961798,0,TRUE,7.67970874,FALSE,2.3e-06,0,118
"mp-1361","IrSe2",0.0517000000000003,24,2,476.940536168186,9.75243030224792,19.8725223403411,7,62,3.76584221,90,-5.618641315,-5.93330798166667,-0.656555603229167,0,TRUE,5.70876651,FALSE,0,0,111
"mp-1363","Na2Au",0,6,2,149.536255106365,5.39563468932445,24.9227091843941,4,140,5.61695073149975,76.7877588356744,-2.25607811,-2.25607811,-0.283100581034483,0,TRUE,1.81952063,FALSE,1e-07,0,90
"mp-1364","YNi",0,8,2,160.344718122519,6.11418508063567,20.0430897653149,7,62,4.10365572018076,90.0011650231956,-6.55512879875,-6.55512879875,-0.431824902083334,0,TRUE,4.79436289,FALSE,4e-07,0,67
"mp-1365","Ti6Ge5",0,22,2,349.485608181881,6.1806146216625,15.8857094628128,7,72,5.21961320538317,114.19364694507,-7.07095753272727,-7.07095753272727,-0.662949225909091,0.0107749825378782,FALSE,7.21175813,FALSE,6.61e-05,0,238
"mp-1367","Mg2Si",0.218,3,2,63.699048377882,1.99933715221155,21.2330161259607,3,225,4.48279870612544,60.0000093372131,-3.02768478333333,-3.00401811666667,-0.128725406666666,0,TRUE,3.40203031,FALSE,0,0,26
"mp-1368","Zn8Cu5",0,26,2,334.325229909151,8.35424042910683,12.8586626888135,3,217,7.57292636244017,109.471224261576,-2.46029890153846,-2.46029890153846,-0.108454114615385,0,TRUE,4.82408769,FALSE,0,0,326
"mp-1370","CsSi",1.5634,64,2,2529.05992891072,3.3825281806014,39.51656138923,3,218,13.62447282,90,-3.2204343896875,-3.1849343896875,-0.0245741886530175,0,TRUE,2.29083179,FALSE,0,0,69
"mp-1371","Sn3Pd",0,16,2,368.253485772977,8.34297433620864,23.0158428608111,7,64,6.51583526335008,90,-4.5947999975,-4.5947999975,-0.29265065375,0.0011530773437495,FALSE,7.75589388,FALSE,0,0,146
"mp-1372","Cd3As2",0,40,2,1044.82529720676,6.19287500540691,26.120632430169,4,137,9.05899625,90,-2.507890325,-2.507890325,-0.0905091070000001,0.0020047188749998,FALSE,1.86840205,FALSE,0,0,129
"mp-1373","Nb3Ge",0,8,2,138.310865375312,8.43672804437705,17.2888581719141,3,223,5.17152664,90,-8.99805457125,-8.99805457125,-0.266318827499999,0.0536666316666671,FALSE,5.93691925,FALSE,0.0004487,0,114
"mp-1374","Zr5Re24",0,29,2,464.734684398428,17.5977849405176,16.0253339447734,3,217,8.45166511174882,109.471221100131,-11.9925594117241,-11.9925594117241,-0.219898874137931,0,TRUE,6.80634387,FALSE,5e-07,0,235
"mp-1377","ThCu2",0,3,2,57.5301881835195,10.3658533623785,19.1767293945065,6,191,4.35172469,90,-5.40545268666667,-5.40545268666667,-0.201362156666667,0,TRUE,7.01634217,FALSE,2e-06,0,119
"mp-1378","LiC",3.2849,4,2,45.9683374047532,1.3692049791311,11.4920843511883,7,71,3.59152977734883,73.5245827249329,-5.555446985,-5.555446985,0.013347194583333,0.0158163284722219,FALSE,-0.88078674,FALSE,0,0,9
"mp-1379","SnS",1.2738,4,2,127.228646870541,3.93571391231366,31.8071617176352,7,63,3.74941351674818,90,-4.44848704,-4.69998704,-0.6269761790625,0.06220758125,FALSE,3.09519249,FALSE,0,0,66
"mp-1380","Zn3Ru",0,8,2,108.000383782233,9.14206534447881,13.5000479727791,4,139,3.74953504133387,103.338011102346,-3.414928175,-3.414928175,-0.1515198325,0,TRUE,4.18463884,FALSE,4e-07,0,104
"mp-1382","Ce3S4",0,14,2,311.099475384374,5.85655128555739,22.2213910988839,3,220,7.39333508234329,109.471220634491,-6.93016374071429,-7.21759231214286,-2.31115417892857,0.0083993021428572,FALSE,8.57794236,TRUE,7.9358465,6,164
"mp-1383","UCo2",0,6,2,81.4828746797151,14.5055768243888,13.5804791132858,3,227,4.86625479199737,59.9999957045363,-8.747840705,-8.747840705,-0.245158838333334,0,TRUE,10.48357545,TRUE,1.7010868,6,119
"mp-1384","LaIr5",0,6,2,108.996939510732,16.7580590475465,18.1661565851219,6,191,4.330987,60.0000011415232,-8.49245554166667,-8.49245554166667,-0.304425874166666,0.0647278366666679,FALSE,8.69330196,FALSE,1.2e-05,0,365
"mp-1385","CeZn2",0,6,2,128.067966365276,7.02590201498176,21.3446610608793,7,74,5.73569417006413,133.076344863292,-3.11336659666667,-3.11336659666667,-0.295841138333333,0,TRUE,5.07267592,TRUE,2.3936887,2,88
"mp-1386","HoPb3",0,4,2,113.638914976304,11.4931080052792,28.409728744076,3,221,4.84368278,90,-4.1886984525,-4.1886984525,-0.258610932499999,0,TRUE,7.03671007,FALSE,2.69e-05,0,231
"mp-1387","AlV3",0,8,2,109.87161605942,5.43497879096296,13.7339520074276,3,223,4.78956725,90,-7.883567425,-7.883567425,-0.134243915,0,TRUE,6.47361175,TRUE,3.8461597,6,59
"mp-1388","DyRh2",0,6,2,104.930313339848,11.6571614949377,17.4883855566414,3,227,5.29426078594347,59.9999977944761,-7.19025245,-7.19025245,-0.745118256666667,0,TRUE,5.43601729,FALSE,2.4e-06,0,111
"mp-1389","PuAl3",0,24,2,448.522474603693,7.21814303054483,18.6884364418205,6,194,5.98872835995898,90,-6.6529645075,-6.6529645075,-0.276823052499999,0.0142379566666672,FALSE,8.97761606,TRUE,32.4778801,6,26