"material_id","formula_pretty","band_gap","nsites","nelements","volume","density","density_atomic","crystal_symmetry","symmetry_number","sides_abc","angles_abc","uncorrected_energy_per_atom","energy_per_atom","formation_energy_per_atom","energy_above_hull","is_stable","efermi","is_magnetic","total_magnetization","num_magnetic_sites","atomic_number"
"mp-7939","NaNbSe2",0.501399999999999,8,3,163.876374395454,5.54909046069339,20.4845467994318,6,194,3.57450499,90,-5.60643420875,-5.84243420875,-1.23852088655981,0,TRUE,4.74149725,FALSE,0,0,86
"mp-7940","KNbSe2",0.685499999999999,8,3,187.513240829934,5.13490413136361,23.4391551037417,6,194,3.63703190787488,90,-5.53478708375,-5.77078708375,-1.21990534817188,0.0290433236249967,FALSE,4.3987189,FALSE,0.0007533,0,94
"mp-7941","Li6TeO6",2.5821,13,3,123.509667622044,3.56608009558059,9.50074366323412,2,148,5.09079408265541,101.021784509101,-5.22152217307692,-5.53859909615385,-2.13267791455128,0,TRUE,0.99889412,FALSE,0,0,107
"mp-7942","NaTiS2",0,4,3,73.2458338830894,3.06025328650551,18.3114584707723,2,166,6.89453010971379,30.1491925341974,-5.718097055,-5.969597055,-1.59686779403377,0,TRUE,5.0980387,TRUE,1.0016061,1,49
"mp-7943","LiAs",0.3285,16,2,287.389201024573,3.78402653708136,17.9618250640358,1,14,5.20832454,94.5366708749293,-3.770322728125,-3.770322728125,-0.486302092291666,0,TRUE,3.14337844,FALSE,0,0,36
"mp-7944","NaSb",0.6041,16,2,477.144587518805,4.03001778594089,29.8215367199253,1,14,6.34242564,95.5487687427441,-3.048640753125,-3.144640753125,-0.418877486400862,0,TRUE,3.48942018,FALSE,0,0,62
"mp-7945","V3S",0,16,2,200.574009270536,6.12275217254164,12.5358755794085,4,121,4.5301691057109,84.03878055798,-8.389955244375,-8.515705244375,-0.668663225156251,0.0029779490624992,FALSE,8.06687236,FALSE,3e-07,0,62
"mp-7947","PtO",0,4,2,53.4645023486267,13.111960894171,13.3661255871567,4,131,3.158604,90,-5.750354715,-6.093854715,-0.584943699375,0.13912734125,FALSE,5.57966471,FALSE,3.5e-05,0,86
"mp-7948","ReSi",0,8,2,108.802769217848,13.082059233875,13.6003461522311,3,198,4.77397327,90,-9.23635401625,-9.20085401625,-0.265931408750001,0.0308662137500004,FALSE,9.47019652,FALSE,0,0,89
"mp-7949","Rb2GeF6",5.807,9,3,139.261919026379,4.26356571790293,15.4735465584866,2,164,5.81856145,90,-4.73326384555556,-5.04126384555556,-3.03537831166667,0.0093822911111089,FALSE,-2.55598636,FALSE,0,0,114
"mp-7950","ThSeO",0.769,6,3,115.341647268733,9.41536851374871,19.2236078781222,4,129,4.03862619,90,-8.203806205,-8.59013953833333,-3.30465339203125,0,TRUE,6.36050642,FALSE,0,0,132
"mp-7951","ThSe2",0.6305,12,2,309.635549896398,8.3651969960453,25.8029624913665,7,62,4.45313753,90,-6.53219895916667,-6.84686562583333,-2.04497189072917,0,TRUE,5.64646138,FALSE,0,0,124
"mp-7954","Nd2O3",1.5703,5,2,105.903702778593,5.27594242369073,21.1807405557187,6,191,6.16535830187427,90,-8.03033371,-8.44253371,-3.56726151025,0.215049207499998,FALSE,0.38522351,FALSE,2.4e-06,0,76
"mp-7955","Li3Sb",0.4833,8,2,156.978033049964,3.01653214953545,19.6222541312455,6,194,4.67231893,90,-3.09285881,-3.14085881,-0.67691635,0.0029604249999999,FALSE,2.34408978,FALSE,0,0,57
"mp-7956","Na3Sb",0.3946,8,2,232.176918123872,2.72820803526148,29.022114765484,6,194,5.320682,90,-2.4523914575,-2.5003914575,-0.476247177413793,0,TRUE,1.71192918,FALSE,0,0,73
"mp-7958","KLaO2",3.8596,4,3,74.1280301558862,4.70425925035472,18.5320075389715,2,166,6.56244072570973,32.8846654562084,-6.65188762,-6.99538762,-3.010441751375,0,TRUE,3.07358829,FALSE,0,0,84
"mp-7959","KErO2",3.9606,4,3,62.1147790411295,6.37206832129816,15.5286947602824,2,166,6.47999549056917,30.4955233366526,-6.6932969175,-7.0367969175,-3.143923122625,0,TRUE,1.09716097,FALSE,0,0,95
"mp-7961","Sr3SnO",0,5,3,136.737904809987,4.82806520475882,27.3475809619974,3,221,5.1518472,90,-4.312098488,-4.449498488,-1.64455030275,0,TRUE,4.25806805,FALSE,3e-07,0,134
"mp-7962","YbAgS2",0,8,3,166.474000634672,6.88335005328171,20.809250079334,4,141,6.67889820869707,130.898199635748,-4.175840445,-4.427340445,-1.26607444072917,0.0985124818749998,FALSE,2.88761112,FALSE,0.0010253,0,133
"mp-7964","YAlO3",3.4965,10,3,121.035136470082,4.49684992738127,12.1035136470082,6,194,3.48856842363411,90,-8.236358362,-8.648558362,-3.63813574658333,0.102225660550001,FALSE,3.65253635,FALSE,2.6e-06,0,68
"mp-7971","Ba4Li(SbO4)3",1.8044,20,4,290.956336201453,6.35506507454267,14.5478168100727,3,229,7.23019321677837,109.471220634491,-6.212456933,-6.624656933,-2.55805238891667,0,TRUE,3.37382674,FALSE,0.0008024,0,246
"mp-7972","RbLaO2",3.522,4,3,78.8624886855661,5.39820445582802,19.7156221713915,2,166,6.88033966398325,31.4825161527508,-6.5705284025,-6.9140284025,-2.9615487525,0,TRUE,3.1658162,FALSE,0,0,102
"mp-7973","RbNdO2",3.426,4,3,75.3843962021875,5.76481840087462,18.8460990505469,2,166,6.88495612412845,30.6897317827325,-6.469314635,-6.812814635,-2.902299903125,0,TRUE,1.19702152,FALSE,0,0,105
"mp-7974","RbSmO2",3.4884,4,3,72.7529090569402,6.11297250020033,18.1882272642351,2,166,6.8613510021742,30.2748412514307,-6.507928395,-6.851428395,-2.9533039875,0,TRUE,1.15879349,FALSE,0,0,107
"mp-7976","RbGdO2",3.0036,4,3,70.8660550922345,6.43718132679737,17.7165137730586,2,166,6.8330706977911,30.0492485126532,-8.874286915,-9.217786915,-2.98027848125,0,TRUE,1.61383871,TRUE,7.0000001,1,109
"mp-7977","CsSmO2",2.9281,8,3,156.594941894075,6.68614963229768,19.5743677367594,6,194,3.62646364,90,-6.427298425,-6.770798425,-2.89395694260776,0,TRUE,1.95400077,FALSE,0,0,125
"mp-7979","K2PdF6",2.0399,9,3,129.117578286936,3.84028749238665,14.3463975874374,2,164,5.69202993,90,-4.17672054777778,-4.48472054777778,-2.38810349122222,0,TRUE,-2.02499874,FALSE,0,0,110
"mp-7980","Ba3SrTa2O9",3.3696,15,4,233.226098426314,7.15896589478934,15.5484065617543,2,164,5.97167483,90,-8.02503129066667,-8.43723129066667,-3.39175316169445,0.0148866890000007,FALSE,1.98875819,FALSE,2e-07,0,287
"mp-7982","Mg2SiO4",4.3954,14,3,127.334884158727,3.66947974224938,9.09534886848052,7,55,2.841065,90,-6.71534918857143,-7.10792061714286,-3.04897304928571,0.173505382857142,FALSE,5.39023597,FALSE,0.0007756,0,50
"mp-7983","Mg2SiO4",3.5753,7,3,65.7339859694582,3.55411870291282,9.39056942420831,4,139,3.49974,107.222959970013,-6.50914410857143,-6.90171553714286,-2.84276796928571,0.379710462857142,FALSE,5.67377421,FALSE,0,0,50
"mp-7984","KOsF6",1.3498,8,3,115.614613478529,4.93098690878336,14.4518266848161,2,148,4.91940350550175,97.5885441365044,-5.10622715625,-5.45272715625,-2.4768971335,0,TRUE,-1.09493261,TRUE,2.9999999,1,140
"mp-7986","CaSnO3",1.3905,5,3,67.2415908458159,5.10660975171035,13.4483181691632,3,221,4.066424,90,-6.244075544,-6.656275544,-2.48522797025,0.195219682000001,FALSE,4.55740052,FALSE,0.001027,0,86
"mp-7988","Cs2O",0.5832,3,2,102.222378512173,4.57783340244415,34.0741261707243,2,166,7.12301787092607,34.27591700839,-3.20588526,-3.43488526,-1.18905410820402,0,TRUE,1.61294492,FALSE,0,0,63
"mp-7991","BN",3.9617,4,2,39.939956653438,2.06363570951004,9.9849891633595,6,194,2.50163994,90,-8.7885626475,-8.9690626475,-1.46111929958333,0.0002607300000008,FALSE,1.55211358,FALSE,0,0,12
"mp-7995","Mg2BO3F",4.4508,28,4,281.651422741765,2.98129321380359,10.0589793836345,7,62,3.138811,90,-6.66575821214286,-7.02618678357143,-3.22168721613095,0.0020026116964357,FALSE,2.59543226,FALSE,0,0,42
"mp-7998","Li2Ge2O5",3.3005,18,3,224.846126007707,3.53248570193624,12.4914514448726,7,37,8.20316122157195,90,-6.06415778611111,-6.44582445277778,-2.24611945282407,0.0001729903703768,FALSE,2.57699199,FALSE,0,0,67
"mp-7999","Y2Si2O7",4.931,22,3,283.465437320015,4.05348052930404,12.8847926054552,1,14,10.84153424,84.0021218599375,-8.53700649954545,-8.97418831772727,-3.66415202087121,0.0154298105303123,FALSE,1.9380987,FALSE,0,0,101
"mp-8000","SrSn(BO3)2",3.6178,10,4,123.428260698906,4.35823182402935,12.3428260698906,2,148,6.39088523160047,46.0519645919931,-7.295531847,-7.707731847,-2.83393373525,0,TRUE,2.19954216,FALSE,0.0006954,0,109
"mp-8001","LiAlO2",6.0958,4,3,31.7955260859172,3.44277864036823,7.94888152147931,2,166,4.97433834528204,32.6116223342886,-6.6112554625,-6.9547554625,-3.06778643270833,0.0157326956250019,FALSE,4.0002797,FALSE,0,0,24
"mp-8002","LiGaO2",3.7448,4,3,36.824352144624,4.89998639426124,9.20608803615601,2,166,2.95041613546784,73.4313493105555,-5.67743819,-6.02093819,-2.31333911208333,0.0661718118749998,FALSE,2.50829979,FALSE,0,0,42
"mp-8003","SiCN",0,3,3,26.97879276217,3.33002220886355,8.99293092072332,3,216,3.36650427253078,60,-6.11195776666667,-6.2322911,1.43120171583333,2.22326022195832,FALSE,8.62623108,FALSE,0.0020579,0,27
"mp-8007","LiUO3",0.4431,10,3,126.887189232799,7.66799225145438,12.6887189232799,2,161,5.88592777977006,54.8461602670994,-8.545152079,-8.957352079,-3.34927227691667,0,TRUE,5.54832641,TRUE,1.9999999,2,111
"mp-8013","KRuF6",1.1302,8,3,118.133915919134,3.57255982809812,14.7667394898918,2,166,4.96039111617946,97.9808397122401,-4.82760361125,-5.17410361125,-2.44239419975,0,TRUE,-1.89687107,TRUE,3.0000001,1,108
"mp-8014","RbRuF6",1.1801,8,3,128.712571678186,3.87715700254247,16.0890714597733,2,166,5.10076822711199,97.7430297029223,-4.8239564525,-5.1704564525,-2.4549801503125,0,TRUE,-2.1891649,TRUE,3.0000001,1,126
"mp-8015","CsRuF6",1.2352,8,3,145.036692445929,3.98389478593813,18.1295865557411,2,166,5.30284599812541,97.3961109970697,-4.82879689,-5.17529689,-2.47046205036638,0,TRUE,-2.05983038,TRUE,3.0000002,1,144
"mp-8016","AlCuSe2",0.8922,8,3,172.567894657647,4.78138583847676,21.5709868322059,4,122,5.58689573155977,114.273993562117,-4.33466866125,-4.57066866125,-0.861517297421875,0,TRUE,3.87614444,FALSE,1e-07,0,76
"mp-8017","AlCuTe2",1.0186,8,3,218.712797835153,5.24975300876049,27.3390997293941,4,122,6.03458634472099,114.176219945525,-3.87234829875,-4.08334829875,-0.550499727083333,0,TRUE,4.91045025,FALSE,0,0,94
"mp-8018","K2RhF6",0,9,3,129.413251743833,3.78641792699071,14.3792501937592,2,164,5.69526147,90,-4.52189928555556,-4.82989928555556,-2.49056822233333,0,TRUE,-0.94265853,TRUE,0.9980709,1,109
"mp-8020","LaTiO3",0,5,3,62.0491878199889,6.28285208757026,12.4098375639978,3,221,3.958938,90,-8.72042696,-9.13262696,-3.59831390891667,0.0675842517499969,FALSE,9.32725554,FALSE,0.002878,0,95
"mp-8022","Al2O",0,3,2,46.0894914022028,2.52064891697111,15.3631638007343,3,225,4.02444167658074,60,-4.05890573666667,-4.28790573666667,-0.141958946249999,1.76210460055556,FALSE,6.41935667,FALSE,0.0033274,0,21
"mp-8023","AlO",0,2,2,22.4266552309785,3.18244191696712,11.2133276154893,3,225,3.16538471918502,60,-5.555384055,-5.898884055,-1.552751784375,1.30334353583333,FALSE,9.11876504,FALSE,0.0029123,0,21
"mp-8033","PuF3",0,8,2,103.986918820008,9.61302267769643,12.9983648525009,6,194,4.09542454,90,-8.6331346225,-8.9796346225,-3.979065814375,0,TRUE,7.05074107,TRUE,10.0000002,2,18
"mp-8035","B4C",0,15,2,222.027160655073,1.23974815998936,14.8018107103382,2,166,6.77585257182002,60.4121932610781,-6.23696928066667,-6.23696928066667,0.9522772345,1.052622124,FALSE,0.30999453,FALSE,1.8e-06,0,21
"mp-8037","BaThO3",3.2033,5,3,97.3433003825065,7.11962708753688,19.4686600765013,3,221,4.600115,90,-8.114833092,-8.527033092,-3.69245322725,0.0834060900000004,FALSE,2.97104036,FALSE,0,0,162
"mp-8039","AlF3",7.4203,4,2,46.247118935312,3.01525098822225,11.561779733828,3,221,3.58945264,90,-5.89321481,-6.23971481,-3.869711626875,0.0006581262500002,FALSE,-1.26166888,FALSE,0,0,31
"mp-8041","Rb2S",1.9632,3,2,117.606160168322,2.86626505244951,39.2020533894406,3,225,5.49939702573266,59.9999997336793,-3.02590605,-3.19357271666667,-1.16106671270833,0,TRUE,-0.02807853,FALSE,0,0,53
"mp-8042","ZrGeO4",3.5095,12,3,125.847375522369,6.01320586952927,10.4872812935308,4,88,4.87513311891898,112.674069489831,-8.00018312333333,-8.45818312333333,-2.965269235,0,TRUE,3.01563658,FALSE,0,0,96
"mp-8044","V2PC",0,8,3,88.3924056808725,5.44295809752457,11.0490507101091,6,194,3.07025511,90,-8.88833232125,-8.88833232125,-0.685887286458334,0,TRUE,8.39919005,FALSE,1e-07,0,44
"mp-8045","V5P3N",0,18,3,208.249676800616,5.76721041393809,11.5694264889231,6,193,6.84816983594493,90,-8.62275031611111,-8.66286142722222,-0.885535561111112,0.0667825822222152,FALSE,9.53480916,FALSE,0.0465816,0,129
"mp-8046","Ta4N5",0,9,2,100.956881555343,13.0568361209921,11.217431283927,4,87,4.27495260307089,80.6710617293281,-10.9899315933333,-11.1904871488889,-1.28897768833333,0.0309109558730149,FALSE,7.35492117,FALSE,0,0,247
"mp-8048","NdNi4B",0,12,3,151.056859492921,8.57057800185745,12.5880716244101,6,191,5.02251806,90,-6.18297067416667,-6.18297067416667,-0.421623020277778,0,TRUE,6.70389057,FALSE,1.2e-06,0,149
"mp-8053","YCo",0,4,2,82.948517230006,5.91915366276204,20.7371293075015,7,63,3.84650815,111.625272004795,-6.981067115,-6.981067115,-0.193672660833334,0.0035278424999996,FALSE,3.80441372,TRUE,1.1224108,4,66
"mp-8054","NaSc(GeO3)2",3.5612,20,4,258.956184693226,3.96573147560922,12.9478092346613,1,15,6.94901378506691,76.9108146064319,-6.8855298445,-7.2977298445,-2.63961160690517,0,TRUE,1.4391422,FALSE,3.1e-06,0,80
"mp-8056","Ca(BO2)2",5.9058,56,3,580.889852761177,2.87456596992648,10.373033085021,7,56,5.0173966,90,-7.75834815392857,-8.1509195825,-3.12932840154762,0,TRUE,1.22119209,FALSE,0,0,33
"mp-8057","Ti3O5",0,16,2,185.545189436031,4.00218637133283,11.596574339752,7,63,3.77145260829552,89.9997634280714,-8.998768155625,-9.428143155625,-3.37565320484375,0.0050849706250009,FALSE,5.55285299,TRUE,3.9989908,6,76
"mp-8058","YAsO4",3.6598,12,3,157.655688073266,4.79922292051128,13.1379740061055,4,141,5.9108576321834,106.558703815295,-7.52447991666667,-7.98247991666667,-2.83042252277778,0,TRUE,1.29761737,FALSE,0,0,96
"mp-8059","SiO2",5.5887,24,2,355.158435541897,2.24738747454122,14.7982681475791,3,198,7.08175196,90,-7.9113160625,-8.3693160625,-3.263084245,0.004947844166665,FALSE,-0.58597902,FALSE,0,0,22
"mp-8062","SiC",1.3669,2,2,20.6349424603657,3.22662913405706,10.3174712301828,3,216,3.07873852111218,60.0000027932749,-7.5296584,-7.5296584,-0.20266663875,0.0011095605000006,FALSE,8.05933012,FALSE,0,0,20
"mp-8065","K2Ti6O13",2.7535,21,3,267.292110157587,3.56216209774272,12.7281957217899,1,12,8.03523538860697,80.5597554909608,-8.34879755,-8.77408326428572,-3.35024025284524,0,TRUE,1.30463654,FALSE,0,0,129
"mp-8066","Cu3As",0,24,2,331.573699686393,7.97962125574641,13.8155708202664,2,165,7.19066203288522,90,-4.15965476875,-4.15965476875,0.0795298349999994,0.0795298349999997,FALSE,7.26741355,FALSE,3.11e-05,0,91
"mp-8070","Li2BeSiO4",6.0461,16,4,139.315064655899,2.74089911244067,8.70719154099372,1,7,4.67692276527343,90,-6.72308259125,-7.06658259125,-2.97041615708333,0,TRUE,1.62870682,FALSE,0,0,45
"mp-8073","AsPd2",0,12,2,188.484715441364,10.1406499205709,15.7070596201137,7,36,3.40125163528708,90,-5.37945984666667,-5.37945984666667,-0.373165838333333,0,TRUE,5.60886275,FALSE,0,0,79
"mp-8074","TaSnO3",0,5,3,67.5480834702887,8.5464527329623,13.5096166940577,3,221,4.072593,90,-8.09194018,-8.50414018,-2.36265705625,0.298947173500009,FALSE,7.18676844,FALSE,0.0013352,0,139
"mp-8075","NaBe4SbO7",3.3859,26,4,233.26864928375,4.16855304477474,8.97187112629809,6,186,5.48765196611374,90,-6.57565727115385,-6.94558034807692,-2.71204196560013,0,TRUE,3.48518061,FALSE,0.0002206,0,122
"mp-8076","Na3SbO3",3.0866,28,3,420.859900177731,3.76767996069922,15.0307107206332,3,217,8.17706381758027,109.473194797835,-4.84281019607143,-5.1372387675,-1.86057544548645,0,TRUE,2.04569668,FALSE,0,0,89
"mp-8079","B5W2",0,7,2,59.524050364472,11.7651174435291,8.50343576635314,2,166,7.37628617675657,24.2537453011042,-8.22440692857143,-8.22440692857143,0.248910116309525,0.534290030119045,FALSE,9.48425681,FALSE,0.014269,0,94
"mp-8081","Na2SnF6",4.9677,18,3,253.038792587734,3.65761274946385,14.0577106993186,4,136,5.02261199,90,-4.70089505055556,-5.00889505055556,-2.99517324534483,0,TRUE,-2.36167408,FALSE,4e-07,0,106
"mp-8084","NaNb6O15F",1.5655,23,4,310.822489080569,4.4845065012898,13.5140212643726,7,38,9.14351117320502,90,-8.5082504573913,-8.97638089217391,-2.97454762392616,0.0787189016614853,FALSE,1.00968288,FALSE,0.0021431,0,225
"mp-8085","Mg3P2",1.1649,10,2,218.648979666164,2.04843846117372,21.8648979666164,3,224,6.024428,90,-3.605361569,-3.605361569,-0.479872536333333,0.186816369999999,FALSE,3.25267387,FALSE,8.69e-05,0,39
"mp-8086","Na2Zn2O3",1.0572,14,3,177.532241011124,4.20523172307266,12.6808743579374,1,14,5.78548700745111,90,-4.271072505,-4.56550107642857,-1.70770051347906,0.0037112685714282,FALSE,0.97706967,FALSE,0,0,57
"mp-8090","Cu2P2O7",0,11,3,120.138071542441,4.16088679891948,10.9216428674947,1,12,5.32111687708772,77.3742041015328,-6.46619770454545,-6.90337952272727,-2.02593958344697,0.0038766800000118,FALSE,2.91710558,TRUE,1.9883785,2,92
"mp-8093","Ba2Cd",0,3,2,142.16922202781,4.52092615156747,47.3897406759367,4,139,4.28819055265396,104.961935114253,-1.82473342333333,-1.82473342333333,-0.237786876666667,0,TRUE,1.69971094,FALSE,0.0112782,0,104
"mp-8094","Ba2Hg",0,3,2,137.307651197979,5.74739441889796,45.7692170659929,4,139,4.22818497260454,104.862890677785,-1.76453426666667,-1.76453426666667,-0.383990851666667,0,TRUE,1.98079477,FALSE,0.0005436,0,136
"mp-8096","ZrCuF6",0,8,3,114.263519076963,3.90577131916263,14.2829398846203,2,148,5.57940525331766,56.9807657214269,-5.83753224875,-6.18403224875,-3.169559610625,0.0118524015625007,FALSE,-1.29991854,TRUE,0.9999998,1,114