"material_id","formula_pretty","band_gap","nsites","nelements","volume","density","density_atomic","crystal_symmetry","symmetry_number","sides_abc","angles_abc","uncorrected_energy_per_atom","energy_per_atom","formation_energy_per_atom","energy_above_hull","is_stable","efermi","is_magnetic","total_magnetization","num_magnetic_sites","atomic_number"
"mp-6930","SiO2",5.6695,9,2,113.711130064055,2.63225756484289,12.6345700071172,2,154,4.91657878455832,89.998994636564,-7.90578189777778,-8.36378189777778,-3.25755008027778,0.0104820088888875,FALSE,0.66083877,FALSE,0,0,22
"mp-6931","Sr(AlSi)2",0,5,3,113.12684025314,2.90274500759706,22.625368050628,2,164,4.19038506,90,-4.30180508,-4.27340508,-0.267148845333333,0,TRUE,5.14132564,FALSE,0,0,65
"mp-6933","MnN",0,2,2,17.7059050261872,6.46594694481586,8.85295251309361,3,225,2.92557369698629,60,-8.957216745,-9.137716745,-0.388461636465518,0.0897138499999989,FALSE,7.25327224,TRUE,2.9483819,1,32
"mp-6938","ZnRh",0,2,2,26.7369702344885,10.4534208728229,13.3684851172442,3,221,2.99022635,90,-4.696397335,-4.696397335,-0.384371595,0,TRUE,5.05008491,FALSE,2e-06,0,75
"mp-6939","Sr(BIr)2",0,10,3,153.732025373253,10.6648992915103,15.3732025373253,7,70,5.60908576066934,105.377694193368,-7.173972958,-7.173972958,-0.628943887,0,TRUE,5.65443745,FALSE,0,0,120
"mp-6940","U2IrC2",0,5,3,76.3232221169001,15.0620595814044,15.26464442338,4,139,6.73446271963164,149.964339446571,-10.317328722,-10.317328722,-0.341611685000001,0,TRUE,10.95696501,TRUE,2.6336814,3,175
"mp-6941","Y2Si3N4O3",2.7943,24,4,289.585679801779,4.19849531946967,12.0660699917408,4,113,7.648634,90,-8.52892721916667,-8.8210105525,-2.37143203996528,0.0415318719791706,FALSE,4.98021317,FALSE,0.0013663,0,104
"mp-6942","Ho2CdS4",1.1172,14,3,351.359857781124,5.39270526197409,25.0971326986517,3,227,7.92055683580789,60.0000010160799,-5.47215059714286,-5.75957916857143,-1.95479245892857,0,TRUE,1.79630954,FALSE,0,0,163
"mp-6943","Ca4GdB3O10",3.0999,18,4,231.682849133171,3.6552410383623,12.8712693962873,1,8,9.05739407376763,84.958745472697,-8.08563327,-8.46729993666667,-3.37821192638889,0,TRUE,1.60973135,TRUE,7.0001705,1,134
"mp-6944","LiTiO2",0,16,3,142.845368181959,4.03642300709162,8.92783551137243,3,227,5.86759857194848,60.0000002596695,-7.53281918875,-7.87631918875,-2.95187111229167,0.0281219825,FALSE,6.25773222,FALSE,0.0001849,0,33
"mp-6945","SiO2",5.5037,12,2,172.838698324058,2.309027513092,14.4032248603382,4,92,4.99264721,90,-7.91332857916667,-8.37132857916667,-3.26509676166667,0.0029353274999976,FALSE,-0.1488048,FALSE,0,0,22
"mp-6947","SiO2",5.0337,6,2,48.2666756357292,4.13421169472291,8.04444593928819,4,136,4.233169,90,-7.72020024333333,-8.17820024333333,-3.07196842583333,0.196063663333332,FALSE,7.82815087,FALSE,0,0,22
"mp-6948","KNaO",2.1322,6,3,96.9000894987416,2.67630905238846,16.1500149164569,4,129,3.96242381,90,-3.55959504333333,-3.78859504333333,-1.32872405943391,0.0148971533333335,FALSE,0.91858194,FALSE,0,0,38
"mp-6949","InF3",4.0226,8,2,115.110018918531,4.9570410878076,14.3887523648164,2,167,5.75428515057873,53.7710333159993,-4.609637005,-4.956137005,-2.834606846875,0,TRUE,-1.74364854,FALSE,0,0,67
"mp-6950","BaSb3",0,8,2,288.085373322001,5.7941057473527,36.0106716652501,1,12,6.5767805510101,76.7271163771744,-4.1239011575,-4.2679011575,-0.6914064925,0,TRUE,5.14021036,FALSE,0,0,158
"mp-6951","RbCdF3",3.1745,5,3,86.6431336739982,4.88472925730288,17.3286267347996,3,221,4.42498073,90,-3.95612982,-4.23332982,-2.705757673,0,TRUE,-1.86367532,FALSE,0,0,103
"mp-6952","RbYbF3",6.5181,5,3,82.755227072502,6.33077923418276,16.5510454145004,3,221,4.35777843,90,-5.268537274,-5.545737274,-3.894821423,0,TRUE,-2.74841149,FALSE,0,0,125
"mp-6953","Ca(MnP)2",0,5,3,84.5655756982521,4.1609237023129,16.9131151396504,2,164,3.79455472743377,90,-6.915090312,-6.915090312,-0.683843216505747,0.0606709443333359,FALSE,5.5515252,TRUE,3.9330452,2,60
"mp-6954","SrAgAs",0,6,3,149.592433680291,6.00332551379105,24.9320722800485,6,194,4.53769608,90,-3.84981635833333,-3.84981635833333,-0.789427071111112,0,TRUE,3.72209109,FALSE,0,0,118
"mp-6955","KGeNO",2.6817,16,4,251.864283883033,3.73807846103476,15.7415177426895,7,29,5.291175,90,-5.7715159375,-6.0335159375,-1.2793633279375,0,TRUE,1.1874323,FALSE,0.0004044,0,66
"mp-6956","La(FeP)2",0,5,3,78.9696428627935,6.57201720452064,15.7939285725587,4,139,3.78576539752061,107.998870820428,-7.527398506,-7.527398506,-0.986867598333333,0,TRUE,8.78701236,FALSE,3.9e-06,0,98
"mp-6957","Ce(FeP)2",0,5,3,73.8599173044974,7.05389340929707,14.7719834608995,4,139,3.7828440649686,108.987133426159,-7.735556336,-7.735556336,-0.995609018333333,0,TRUE,8.81503577,TRUE,0.2423565,3,99
"mp-6958","TlSb",0,2,2,59.3456519105544,9.12575182047208,29.6728259552772,3,221,3.900584,90,-3.07801595,-3.17401595,0.071806243333333,0.110244525,FALSE,6.47892062,FALSE,0.0011795,0,132
"mp-6959","Ga2NiS4",0,7,3,144.444315420429,3.75230380951457,20.6349022029184,2,164,3.64891604133063,90,-4.59234007,-4.87976864142857,-0.825178899642857,0.0422546795238076,FALSE,4.30615611,TRUE,1.9998514,1,107
"mp-6960","Rb2SiAs2",0.9555,10,3,325.364798356422,3.56094329822037,32.5364798356422,7,72,6.41392786809007,115.527045399579,-3.781094508,-3.781094508,-0.440169911,0,TRUE,2.18882499,FALSE,0,0,84
"mp-6961","Sr(SbPd)2",0,5,3,117.650707252262,7.6778122507351,23.5301414504524,4,139,4.65347462861244,111.488433425744,-4.81657681,-4.89337681,-0.831924899333334,0.0242176969999992,FALSE,5.80020632,FALSE,1e-07,0,135
"mp-6962","Ba(AsPd)2",0,5,3,109.79684075542,7.56202514649762,21.959368151084,4,139,4.531028,111.308741421814,-5.075789428,-5.075789428,-0.756394354,0.0268748329999999,FALSE,4.36308037,FALSE,4.1e-06,0,135
"mp-6963","Ba(SbPd)2",0,5,3,125.638130907055,7.84666605365101,25.1276261814111,4,139,4.74596387849032,111.378915907273,-4.893223874,-4.970023874,-0.862675666,0.0175569219999998,FALSE,5.44531085,FALSE,2.2e-06,0,153
"mp-6964","NaTbO2",3.8923,8,3,109.475562046253,6.48934635665781,13.6844452557816,4,141,4.6070977473384,112.185354277401,-6.75231277125,-7.09581277125,-3.13324556726293,0,TRUE,1.4446235,FALSE,0,0,84
"mp-6968","Cs2KCuF6",0.8991,10,4,189.631768265238,4.22460757409143,18.9631768265238,3,225,6.44874737638388,60,-4.14662984,-4.42382984,-2.57690142338621,0,TRUE,-1.11106775,TRUE,1.9997632,1,148
"mp-6969","Sc(CuSi)2",0,5,3,72.4637208965241,5.22973999160352,14.4927441793048,4,139,3.80302118025612,109.536013229523,-5.57419425,-5.54579425,-0.469490549,0,TRUE,7.77608045,FALSE,5e-07,0,64
"mp-6972","YCuO2",2.6406,4,3,61.2398926040207,5.00143774198347,15.3099731510052,2,166,6.02785920443878,34.0587223529534,-7.4943543325,-7.8378543325,-2.72309053104167,0.0010602035937496,FALSE,2.44967986,FALSE,0,0,76
"mp-6973","CsNaS",2.4134,6,3,181.439559279768,3.44043263194776,30.2399265466279,4,129,4.79937057,90,-3.16585459333333,-3.33352126,-1.21539541586925,0,TRUE,1.30429267,FALSE,0,0,82
"mp-6977","Be3N2",3.3284,10,2,68.162369588701,2.68220094162846,6.8162369588701,6,194,2.84167913,90,-6.622959445,-6.767359445,-1.189113756,0.028952170500001,FALSE,4.63060233,FALSE,0,0,15
"mp-6978","RbHoO2",3.6251,4,3,67.2826073323698,6.96957410748128,16.8206518330925,2,166,6.80457458244795,29.4204548041427,-6.5773549625,-6.9208549625,-3.05677487125,0,TRUE,1.30058917,FALSE,0,0,112
"mp-6979","ThGeS",0,6,3,135.022670561501,8.2826832592047,22.5037784269168,4,139,3.96830389145942,102.704917013366,-6.81172366666667,-6.97939033333333,-1.58827834270833,0,TRUE,7.22284175,FALSE,0,0,138
"mp-6980","ScCuS2",0.870900000000001,4,3,72.5416896105051,3.95168675498207,18.1354224026263,2,156,3.73793898,90,-5.958020955,-6.209520955,-1.5333770778125,0,TRUE,5.3532874,FALSE,0,0,66
"mp-6982","ErB2Rh2C",0,6,4,74.2074804301224,9.10077687488177,12.3679134050204,4,139,5.82358594644666,142.038479920176,-7.55840401666667,-7.55840401666667,-0.577773419305556,0.0409068810119057,FALSE,5.82567596,FALSE,0.0033753,0,124
"mp-6983","NaAgO",1.2098,12,3,203.028878414124,4.80448694417016,16.919073201177,4,139,7.03744262271502,96.0955913950031,-3.85210323583333,-4.08110323583333,-1.0471798998228,0,TRUE,0.50018036,FALSE,0,0,66
"mp-6984","K2SiAs2",1.0036,10,3,296.893839483937,2.86503800371146,29.6893839483937,7,72,6.3601724732643,115.399829708685,-3.846409195,-3.846409195,-0.453538648199999,0,TRUE,2.10370136,FALSE,0,0,66
"mp-6985","Ti",0,1,1,17.3458545750037,4.58236422755926,17.3458545750037,3,225,2.905607732151,60.0000023816076,-7.8335295,-7.8335295,0.0619625166666661,0.0619625166666661,FALSE,6.11115419,FALSE,0.0013812,0,22
"mp-6986","Ta",0,1,1,18.1515649148913,16.5534500836314,18.1515649148913,3,225,2.94991676705395,59.9999889599979,-11.6128968,-11.6128968,0.24488083,0.24488083,FALSE,5.89946928,FALSE,0,0,73
"mp-6987","Sr(GaTe2)2",0.4519,14,3,473.069002710867,5.17721979783862,33.7906430507762,7,66,6.79793974740493,90,-3.64924881428571,-3.89039167142857,-0.98769037547619,0,TRUE,3.14849283,FALSE,0,0,121
"mp-6988","FeN",0,2,2,18.4994635891849,6.26999135187001,9.24973179459243,3,216,2.9686437616234,59.9999846086046,-8.537394905,-8.717894905,-0.314636837499998,0,TRUE,5.56133386,FALSE,0,0,33
"mp-6989","BaSeO3",3.8866,10,3,176.759707858283,4.96556488626975,17.6759707858283,1,11,4.7273169265838,90,-5.957633006,-6.369833006,-2.31884249571875,0,TRUE,1.17998316,FALSE,0,0,106
"mp-6992","Eu(NiAs)2",0,5,3,84.5948207512642,8.22849445512795,16.9189641502528,4,139,4.0874384944614,110.520281437891,-6.952482058,-6.952482058,-0.725379663999999,0,TRUE,6.23383965,TRUE,6.8989428,1,124
"mp-6995","SrAl12O19",4.9068,64,3,607.550795757494,3.91054764302542,9.49298118371084,6,194,5.626556492062,90,-7.42535429875,-7.83326054875,-3.43877651977865,0.0027731485937501,FALSE,5.72444559,FALSE,2.6e-06,0,38
"mp-6996","SmB6",0,7,2,69.537394702053,5.13955379949689,9.93391352886471,3,221,4.11218652,90,-6.85427620428572,-6.85427620428572,-0.454999524285714,0,TRUE,6.83202031,FALSE,0,0,87
"mp-6997","Sb2Te",0,9,2,295.839009916767,6.24926974880669,32.871001101863,2,164,4.32239714,90,-3.86387106888889,-4.00453773555556,-0.204101611111111,0.0164215792063489,FALSE,6.4204866,FALSE,0,0,103
"mp-6999","ScPS4",1.942,12,3,279.55165723892,2.42577657397706,23.2959714365767,5,2,6.24729817430851,86.4447261705925,-5.64453460333333,-5.97986793666667,-1.26460609013889,0,TRUE,1.7180751,FALSE,0,0,84
"mp-7000","SiO2",5.719,9,2,113.625450968759,2.63424241458226,12.6250501076399,2,152,4.914966,90,-7.90568383777778,-8.36368383777778,-3.25745202027778,0.0105800688888866,FALSE,0.8900259,FALSE,0,0,22
"mp-7002","NaTiO2",0,4,3,42.4520418359792,4.02326210048321,10.6130104589948,2,166,5.67239974148944,30.8052591637902,-7.2225676475,-7.5660676475,-2.78821896434626,0.0076122520402295,FALSE,6.06921771,TRUE,1.0015824,1,41
"mp-7003","CePPd",0,6,3,122.883345916639,7.50005296041459,20.4805576527731,6,194,4.23894707,90,-6.71423527,-6.71423527,-1.20547744611111,0,TRUE,7.86371694,TRUE,2.0382247,2,119
"mp-7006","SrNbO3",0,5,3,67.4037267257946,5.62986664390379,13.4807453451589,3,221,4.06969111,90,-8.090092542,-8.502292542,-3.17611961658333,0.0130552904999934,FALSE,4.98693104,FALSE,0.0025986,0,95
"mp-7007","NbSe2",0,3,2,130.417102079715,3.19365325775506,43.4723673599051,7,42,3.49931456506676,85.9618586631051,-6.53720837666667,-6.85187504333333,-1.1541657115625,0.0018386041666671,FALSE,-0.66666218,TRUE,0.9950515,1,75
"mp-7008","GaAg(PSe3)2",0.6701,20,4,489.92895919131,4.83523325223736,24.4964479595655,2,163,6.39226281,90,-3.972240429,-4.255440429,-0.489167838489583,0.0161459173749998,FALSE,2.07052588,FALSE,1e-07,0,161
"mp-7012","KRb2YF6",6.383,20,4,416.167680048201,3.29524232950973,20.8083840024101,1,14,6.750632,55.086072455984,-5.4111644825,-5.6883644825,-3.58768328146667,0,TRUE,-3.14921109,FALSE,0.0021187,0,140
"mp-7013","Ho2Be2SiO7",5.0859,24,4,255.551954473574,6.34146674906533,10.6479981030656,4,113,7.31347,90,-7.9139386125,-8.3146886125,-3.59004007260417,0,TRUE,2.43544462,FALSE,0.0021393,0,133
"mp-7015","CsCeS2",0,4,3,128.491355995183,4.35712700597425,32.1228389987956,2,166,8.42934389182113,29.4929814418242,-5.5332371,-5.7847371,-2.00938928479526,0,TRUE,5.11761706,TRUE,0.9999999,1,129
"mp-7017","NaNbN2",0.8362,4,3,48.3213686577339,4.94537789955564,12.0803421644335,2,166,5.92898129453528,30.7516741032698,-7.733536375,-7.914036375,-0.889831329137931,0.0133810123437498,FALSE,3.92729328,FALSE,0,0,59
"mp-7018","LaGaS2O",1.9299,20,4,375.80123402051,5.10369504424815,18.7900617010255,7,57,5.596946,90,-6.126086459,-6.464686459,-2.2279481445,0.0337187895000008,FALSE,5.78296359,FALSE,0.0012257,0,112
"mp-7020","LiYO2",4.0135,16,3,206.936667905019,4.10352980878786,12.9335417440637,1,14,6.19430872608991,90,-7.482440341875,-7.825940341875,-3.25874749125,0,TRUE,0.85470884,FALSE,0,0,50
"mp-7022","V5As3",0,16,2,217.545480437345,7.3196876708442,13.596592527334,4,140,4.8847882949375,83.2162021696969,-7.856063670625,-7.856063670625,-0.431452975000001,0.0433665400000009,FALSE,7.9085478,FALSE,3.7e-06,0,158
"mp-7024","Tb2C3",0,20,2,282.049837084771,8.33379264418691,14.1024918542385,3,220,7.15565281649141,109.471219780417,-7.646322869,-7.646322869,-0.255377133499999,0.0220870517499989,FALSE,5.33324485,FALSE,2e-07,0,77
"mp-7025","RbTeAu",0,6,3,203.590091841782,6.68871537129927,33.9316819736304,6,194,4.73388008,90,-3.14085636666667,-3.28152303333333,-0.815615711388889,0.0084375533333327,FALSE,2.850336,FALSE,0,0,168
"mp-7027","InBO3",2.6556,10,3,105.353353101549,5.47329041053812,10.5353353101549,2,167,5.88206038397273,48.6887199696657,-6.902881527,-7.315081527,-2.46085320008333,0,TRUE,3.9195389,FALSE,0,0,70
"mp-7028","YbOF",2.2063,12,3,143.4614323851,9.63199359716196,11.955119365425,1,12,4.81391152,82.0913419624184,-5.95771747,-6.26671747,-3.46745881708333,0,TRUE,1.77765548,FALSE,0,0,87
"mp-7029","SiO2",5.7944,12,2,170.841759736615,2.3360173201946,14.2368133113846,4,96,4.97558882,90,-7.91335026666667,-8.37135026666667,-3.26511844916667,0.0029136399999991,FALSE,-0.29442871,FALSE,0,0,22
"mp-7030","LaSiNi",0,6,3,122.363557963726,6.12531572867641,20.3939263272877,4,109,4.18516838172268,106.007529199561,-6.105655555,-6.08198888833333,-0.701501616666666,0,TRUE,8.03760791,FALSE,0.0006011,0,99
"mp-7032","HfMoP",0,9,3,140.114366299615,10.8583057815036,15.5682629221794,6,189,6.89715982,90,-9.70698751777778,-9.70698751777778,-0.968273635555556,0,TRUE,8.24821799,FALSE,0,0,129
"mp-7035","CaMgAsO4F",4.1238,16,5,203.638963800625,3.62542442028683,12.727435237539,1,15,5.66529299955722,76.1057568046022,-6.2355277975,-6.6367777975,-2.8913737790625,0,TRUE,1.40122631,FALSE,0.0072033,0,98
"mp-7038","TlPd2Se3",0.0346999999999999,12,3,283.675733044415,7.65778638578096,23.639644420368,2,164,7.41883958,90,-4.2597137175,-4.4957137175,-0.627356850894097,0,TRUE,3.38265636,FALSE,0,0,195
"mp-7041","CaHgO2",2.125,4,3,69.8426734418712,6.48276835997185,17.4606683604678,2,166,6.59517996260875,31.5770666865831,-4.8023146275,-5.1458146275,-2.095150210625,0,TRUE,0.77144662,FALSE,0,0,108
"mp-7045","RbGdS2",1.7435,4,3,112.31737684052,4.53654433297309,28.07934421013,2,166,8.01792258498105,29.7408891602431,-7.678253575,-7.929753575,-2.0973645634375,0,TRUE,1.787014,TRUE,7,1,117
"mp-7046","RbDyS2",2.3216,4,3,109.193069486681,4.74618574178949,27.2982673716702,2,166,8.00336142828455,29.379704655957,-5.3121939575,-5.5636939575,-2.0986387959375,0,TRUE,1.69590908,FALSE,0,0,119
"mp-7048","Al2O3",4.4553,10,2,93.3790582323023,3.62630952327302,9.33790582323023,1,12,2.90747708327859,103.646337100203,-7.471976721,-7.884176721,-3.41793316225,0.009381222,FALSE,5.23358793,FALSE,0,0,29
"mp-7049","ZrTlCuS3",0.6121,12,4,264.615543461673,5.71488455416009,22.0512952884727,7,63,3.741062,90,-5.55725563833333,-5.80875563833333,-1.23893896378472,0,TRUE,4.62407631,FALSE,0,0,182
"mp-7050","ZrTlCuSe3",0.2271,12,4,294.77882432091,6.71511314915243,24.5649020267425,7,63,7.70405312464718,90,-5.10721334916667,-5.34321334916667,-1.09366586922743,0,TRUE,4.23153505,FALSE,0.0004677,0,218
"mp-7060","LaZnPO",0.656300000000001,8,4,146.6273346129,5.69161174471342,18.3284168266125,4,129,4.045602,90,-6.03418320625,-6.20593320625,-2.06699772302083,0,TRUE,6.2963998,FALSE,0.0011104,0,110
"mp-7061","NdZnAsO",0.8622,8,4,150.616363010681,6.62758731321509,18.8270453763352,4,129,4.066121,90,-5.70001119875,-5.87176119875,-1.9633366590625,0,TRUE,3.96542287,FALSE,0.0001387,0,131
"mp-7062","Mg3Al9FeSi5",0,18,4,299.964984457006,2.83443566531591,16.6647213587225,6,189,6.63447980869518,90,-4.23402684611111,-4.21430462388889,-0.097213847222222,0.015438439967319,FALSE,7.36976635,FALSE,0.0828334,0,210
"mp-7064","Er2Si2O7",4.7986,11,3,139.708626319545,5.9747760075802,12.7007842108678,1,12,5.59660815922126,82.7583680791019,-8.22910342636364,-8.66628524454545,-3.70147663920454,0,TRUE,1.82361874,FALSE,0,0,130
"mp-7066","ScNiGe",0,12,3,185.257977535992,6.32059776304454,15.438164794666,7,62,4.06859255,90,-6.39620156833333,-6.39620156833333,-0.817657021666667,0,TRUE,6.6789647,FALSE,2e-07,0,81
"mp-7067","Ca(CdAs)2",0.2164,5,3,121.581969974787,5.66446888752924,24.3163939949575,2,164,4.41387899,90,-3.222472064,-3.222472064,-0.588548822,0,TRUE,3.04143828,FALSE,0,0,101
"mp-7068","Sr3(AlSi)2",0,7,3,195.683028996737,3.16517605014866,27.9547184281052,7,71,4.20638297870923,103.865219012352,-3.74445184857143,-3.72416613428571,-0.379842122857143,0,TRUE,3.73730792,FALSE,2e-07,0,103
"mp-7070","Mn3PtN",0,5,3,62.9916501993408,9.85660137086906,12.5983300398682,3,221,3.97888141,90,-8.687713956,-8.759913956,-0.38117913175862,0,TRUE,5.9905489,TRUE,11.0533758,4,135
"mp-7072","Th(CoSi)2",0,5,3,78.324988704102,8.60905516704991,15.6649977408204,4,139,4.06928780009515,111.56134985339,-7.305276722,-7.276876722,-0.780650742,0,TRUE,8.12006432,TRUE,1.5124094,2,131
"mp-7073","BaTiS3",0,10,3,234.631345083203,3.98290711964177,23.4631345083203,6,194,6.80284049,90,-6.088998784,-6.390798784,-1.94603547254167,0.006230597,FALSE,3.75052253,FALSE,2e-07,0,110
"mp-7074","NaSc(SiO3)2",4.9501,20,4,236.487998852884,3.09111982263859,11.8243999426442,1,15,6.77819936695528,77.1082391909119,-7.7268862575,-8.1390862575,-3.32050998490517,0,TRUE,2.23112674,FALSE,6.69e-05,0,62
"mp-7077","KAuS",2.1003,6,3,166.135735977159,5.35995605976133,27.6892893295264,7,63,5.04562125318104,90,-3.60152673,-3.76919339666667,-0.928949792041667,0,TRUE,1.1049047,FALSE,0,0,114
"mp-7079","CaZrSi2O7",4.2287,11,4,141.338722064108,3.51835388324983,12.8489747331007,1,5,5.59458406193499,82.7773644842702,-8.16239104545454,-8.59957286363636,-3.50586763193182,0.0033718580303041,FALSE,1.89120259,FALSE,3.6e-06,0,122
"mp-7080","Li5(NiN)3",0,11,3,124.195196277353,3.38010719799541,11.2904723888503,6,189,6.4470537,90,-5.08874555727273,-5.18720010272727,-0.469517452878787,0,TRUE,2.69211554,FALSE,1.3e-06,0,54
"mp-7083","LaSi",0,8,2,205.839164042003,5.3885766733457,25.7298955052503,7,63,4.60491837350066,90,-5.9314794675,-5.8959794675,-0.7153169,0,TRUE,8.29230412,FALSE,0.0041677,0,71
"mp-7084","SrCaSi",0.4224,12,3,364.695865771165,2.83726372532007,30.3913221475971,7,62,4.93363845,90,-3.488562115,-3.46489544833333,-0.424758327222223,0,TRUE,3.08389273,FALSE,0,0,72
"mp-7085","Tm2FeC4",0,14,3,171.538938318468,8.55261748048919,12.252781308462,7,72,4.93930535907322,69.8344097814147,-8.07966994928571,-8.07966994928571,-0.317333659761905,0,TRUE,4.9377911,FALSE,1e-07,0,113
"mp-7086","RbFeSe2",0,8,3,233.21772443888,4.26114915239493,29.15221555486,1,15,7.03924248394062,78.6487523882485,-4.771324345,-5.007324345,-0.896729785546875,0,TRUE,1.64580641,TRUE,6.0003811,2,97
"mp-7087","SiO2",5.3645,12,2,202.511523007802,1.97069926604563,16.8759602506502,6,194,5.23280957244927,89.9999997473328,-7.90449350833333,-8.36249350833333,-3.25626169083333,0.011770398333331,FALSE,-0.97512435,FALSE,0,0,22
"mp-7088","Ta2C",0,3,2,41.5031530158537,14.9599786755223,13.8343843386179,2,164,3.1148898,90,-11.5785120766667,-11.5785120766667,-0.597105159166667,0,TRUE,6.50559956,FALSE,0,0,79
"mp-7089","KMgSb",1.2672,6,3,191.684605064021,3.20809168005832,31.9474341773369,4,129,4.82602207,90,-2.86580833666667,-2.92980833666667,-0.649914924333334,0,TRUE,2.64009536,FALSE,0,0,82