"material_id","formula_pretty","band_gap","nsites","nelements","volume","density","density_atomic","crystal_symmetry","symmetry_number","sides_abc","angles_abc","uncorrected_energy_per_atom","energy_per_atom","formation_energy_per_atom","energy_above_hull","is_stable","efermi","is_magnetic","total_magnetization","num_magnetic_sites","atomic_number"
"mp-693","Pr3Tl",0,4,2,127.387143429845,8.17456455177924,31.8467858574612,3,221,5.03162667,90,-4.3902333,-4.3902333,-0.213893197083333,0,TRUE,4.61247779,TRUE,1.3978107,3,199
"mp-695","TiCo2",0,6,2,74.8144322941224,7.35705024541567,12.4690720490204,3,227,4.72971928874106,59.9999526107315,-7.67308375166667,-7.67308375166667,-0.302374549444445,0.0056007749999995,FALSE,6.13633849,TRUE,4.0632222,6,49
"mp-696","SiPt",0,8,2,120.74430185068,12.2765767839504,15.093037731335,7,62,3.6073755,90,-6.41228485375,-6.37678485375,-0.62855917875,0,TRUE,9.34190144,FALSE,0,0,92
"mp-697","SnO2",0.5858,12,2,138.610302912463,7.22191193070119,11.5508585760386,3,205,5.175256,90,-6.1840937175,-6.6420937175,-2.00777729166667,0.100552909166654,FALSE,6.68796073,FALSE,0,0,58
"mp-698","U3O8",0,11,2,167.521473344235,8.34704897305663,15.2292248494759,7,65,6.73375166234097,90,-9.88233267363636,-10.3819690372727,-3.70490179,0.0028189163636369,FALSE,5.34558144,TRUE,1.9942834,2,240
"mp-700","GeSe",0.8988,8,2,198.8358412319,5.06423230212226,24.8544801539875,7,62,3.78718786,90,-4.2751727575,-4.5111727575,-0.451703091171875,0,TRUE,2.74902105,FALSE,0,0,66
"mp-702","CeHg",0,2,2,56.6903103456554,9.97975879432414,28.3451551728277,3,221,3.84151864,90,-3.40367706,-3.40367706,-0.2852923,0,TRUE,5.79125355,TRUE,1.3737481,1,138
"mp-703","Pu5Rh4",0,36,2,738.615467457763,14.672706935041,20.5170963182712,7,62,6.901939,90,-11.2682171363889,-11.2682171363889,-0.0686145663888879,0.258999034722223,FALSE,10.48755768,TRUE,39.9357758,8,135
"mp-706","HgF",1.7704,4,2,73.9382192262809,9.86323787350034,18.4845548065702,4,139,3.65895312083175,107.456159180027,-2.2961860825,-2.5271860825,-1.41960641625,0,TRUE,-1.1701719,FALSE,0,0,89
"mp-708","LaAs",0,2,2,59.5292334905536,5.96460230397485,29.7646167452768,3,225,4.38276746769039,60.0000105700833,-6.361248085,-6.361248085,-1.56368533,0,TRUE,5.8975965,FALSE,0,0,90
"mp-710","SmP",0,2,2,49.219526181644,6.11773048735369,24.609763090822,3,225,4.11355719941829,59.9999829797448,-6.6321859,-6.6321859,-1.56624157916667,0,TRUE,4.12417422,FALSE,0,0,77
"mp-711","CeGa6",0,14,2,275.661640425443,6.72806475698128,19.690117173246,4,125,5.99564119,90,-3.76540321857143,-3.76540321857143,-0.322308177142857,0,TRUE,4.59795174,TRUE,1.9404551,2,213
"mp-712","YCu",0,2,2,41.3540874692937,6.12157753180781,20.6770437346468,3,221,3.45811539,90,-5.52776607,-5.52776607,-0.244927178333333,0.0136350099999997,FALSE,4.7234412,FALSE,1.08e-05,0,68
"mp-713","KAs",0.6695,16,2,503.796566113701,3.00652304608356,31.4872853821063,7,19,6.44796365,90,-3.338292345,-3.338292345,-0.453533669,0,TRUE,1.66715281,FALSE,0,0,52
"mp-714","SrSn4",0,10,2,290.080403531625,6.43950292421606,29.0080403531625,7,63,4.67507485694085,90,-3.852666763,-3.852666763,-0.307110588333333,0.020420718,FALSE,6.43113916,FALSE,2e-07,0,188
"mp-715","ZrIr2",0,6,2,102.847222074126,15.359650468178,17.1412036790209,3,227,5.25899213377639,60,-9.434679865,-9.434679865,-0.693156868333332,0.0782474687500034,FALSE,7.49948656,FALSE,6.18e-05,0,117
"mp-717","B2O3",8.3751,10,2,74.6163073142822,3.09870767090017,7.46163073142822,7,36,4.1334285,118.850972134391,-8.000738683,-8.412938683,-2.77316874791667,0.0256509383333334,FALSE,2.73068112,FALSE,0,0,21
"mp-718","SnPd3",0,4,2,64.3382463048615,11.3037941934679,16.0845615762154,3,221,4.00703442,90,-5.4041616275,-5.4041616275,-0.516857306249999,0,TRUE,6.65673549,FALSE,5.9e-06,0,142
"mp-720","TlF",3.205,8,2,172.120742633172,8.62032174048402,21.5150928291465,7,57,5.04398845,90,-3.87286947375,-4.10386947375,-1.96680841666667,0,TRUE,0.96357279,FALSE,0,0,90
"mp-721","TbCd",0,2,2,52.3760256581963,8.60249711010943,26.1880128290981,3,221,3.74148648,90,-3.098758635,-3.098758635,-0.320130705,0,TRUE,3.09270824,FALSE,3.17e-05,0,113
"mp-722","Pr3Se4",0,14,2,365.476738799346,6.71130335488557,26.1054813428104,3,220,7.80118382764461,109.471218372322,-5.904645245,-6.17435953071428,-2.12773621991071,0.0176940400549456,FALSE,5.56074953,FALSE,1.3e-06,0,220
"mp-723","Cr23C6",0,29,2,288.307640314712,7.30303640376733,9.94164276947283,3,225,7.41526311551113,59.9991025415187,-9.63649202,-9.63649202,-0.0712477177586183,0,TRUE,7.66645436,FALSE,5.6e-06,0,54
"mp-725","RhO2",0,6,2,62.219667404349,7.20074117228947,10.3699445673915,4,136,3.08996901,89.9999223682402,-6.51436468833333,-6.97236468833333,-1.21980292416667,0,TRUE,4.08526215,FALSE,7e-07,0,53
"mp-726","SeO2",3.2874,24,2,356.229256069985,4.13781673556554,14.8428856695827,4,135,5.08259694,90,-5.16008807,-5.61808807,-1.15499176994792,0,TRUE,0.27237926,FALSE,0,0,42
"mp-728","Li2Pd",0,3,2,41.0392171708622,4.86768960427312,13.6797390569541,6,191,4.20511615,90,-3.38352795666667,-3.38352795666667,-0.384285442222222,0,TRUE,1.98739785,FALSE,6e-07,0,49
"mp-729","Cr3Si",0,8,2,89.9900112985028,6.79323697434851,11.2487514123129,3,223,4.48123895,90,-8.93676853125,-8.91901853125,-0.32290342125,0,TRUE,8.58081601,FALSE,3e-07,0,62
"mp-730","P2Pt",1.0186,12,2,187.405921350988,9.10986982423828,15.6171601125824,3,205,5.72261378,90,-6.31551958,-6.31551958,-0.682940135555556,0,TRUE,7.9214364,FALSE,0,0,93
"mp-731","Mg3Hg",0,8,2,173.220508943836,5.24378712635798,21.6525636179795,6,194,4.82885601,90,-1.38901827125,-1.38901827125,-0.1128881425,0.0432797024999997,FALSE,3.8106868,FALSE,3e-07,0,104
"mp-733","GeO2",3.2501,9,2,122.222446771816,4.26493217583528,13.5802718635351,2,152,4.98695007,90,-6.45872282222222,-6.91672282222222,-2.07792106305556,0,TRUE,-0.79337781,FALSE,0,0,40
"mp-734","LaHg",0,2,2,59.2248658677932,9.51872971949264,29.6124329338966,3,221,3.89793592,90,-3.119601595,-3.119601595,-0.49975786,0,TRUE,6.24358999,FALSE,0.2516041,0,137
"mp-736","Li3P",0.6954,8,2,116.354629571373,1.47842070644251,14.5443286964216,6,194,4.21927393,90,-3.48159086375,-3.48159086375,-0.696573087083333,0,TRUE,1.67696929,FALSE,0,0,21
"mp-737","Hf5Ge4",0,36,2,665.836573188143,11.8013002005727,18.4954603663373,7,62,7.01370133,90,-8.29160876277778,-8.29160876277778,-0.705158032777777,0,TRUE,5.28239319,FALSE,6e-07,0,384
"mp-738","Sb2Au",0,12,2,305.595126825368,9.57404214832367,25.4662605687806,3,205,6.73569078,90,-3.9172160825,-3.9172160825,-0.0732545891666666,0.0095766197222202,FALSE,6.51986421,FALSE,5e-07,0,130
"mp-739","TiP",0,8,2,123.869807047417,4.22760536928576,15.4837258809271,6,194,3.49914344,90,-7.83629286875,-7.83629286875,-1.18189560708333,0,TRUE,7.69081789,FALSE,0,0,37
"mp-740","NdTe3",0,8,2,259.153504852586,6.75409604231917,32.3941881065733,7,63,4.38813833966194,90,-4.55060606,-4.86710606,-1.317589781875,0,TRUE,4.95182011,FALSE,0,0,164
"mp-741","HfO2",3.3929,12,2,120.490602362903,11.6033904263845,10.0408835302419,7,62,3.333597,90,-10.0402318991667,-10.4982318991667,-3.881376415,0.139282821666665,FALSE,4.84663495,FALSE,0,0,80
"mp-742","Ti2Cu",0,3,2,45.6594758450399,5.79267846669291,15.21982528168,4,139,2.92855190248802,104.852572087513,-6.74772728666667,-6.74772728666667,-0.117663718888889,0,TRUE,6.36036052,FALSE,1.7e-06,0,51
"mp-743","RbN3",4.1608,8,2,149.350403451804,2.83492556532813,18.6688004314755,4,140,5.82992665705216,99.7460773760362,-6.63904613625,-6.90979613625,-0.412291424375,0,TRUE,-0.40067465,FALSE,0,0,51
"mp-744","HoP",0,2,2,44.7016431244487,7.27728017875678,22.3508215622243,3,225,3.98363382164396,60.0000059254918,-6.608617435,-6.608617435,-1.61076174666667,0,TRUE,4.57288866,FALSE,1e-07,0,82
"mp-745","ThMg2",0,6,2,156.422111798588,5.95858299363156,26.0703519664313,3,227,6.04789768487287,59.9999915027076,-3.53055327666667,-3.53055327666667,0.0075861733333333,0.0191820075167785,FALSE,5.0716467,FALSE,0.0112841,0,102
"mp-746","Sr5Si3",0,16,2,516.979748856991,3.35561838489881,32.3112343035619,4,140,8.07849020369781,114.430268582936,-3.48243178375,-3.45580678375,-0.365379114166667,0,TRUE,3.06955211,FALSE,0.4198782,0,180
"mp-747","BaPt2",0,6,2,129.435308369837,13.5345767081325,21.5725513949728,3,227,5.67792053241917,60.0000017045454,-5.41324554,-5.41324554,-0.726165013333333,0,TRUE,5.55332515,FALSE,1e-07,0,134
"mp-748","Ti5O9",0,28,2,296.286713132621,4.29674195953048,10.581668326165,5,2,5.58406156623826,69.6684652899662,-8.98432783571429,-9.42597069285714,-3.42613794395833,0.0067779778571495,FALSE,5.7746227,TRUE,4.0574104,10,152
"mp-749","SmN",0,2,2,32.3915231289105,8.4261961227293,16.1957615644553,3,225,3.57807029899544,59.9999843992889,-8.00408078,-8.18458078,-1.65704025,0,TRUE,3.46702636,FALSE,0,0,69
"mp-752","Mn15Si26",0,82,2,983.505168772023,5.24850392302321,11.9939654728296,4,122,5.49601687651894,94.8072619496237,-7.22093205536585,-7.17590766512195,-0.383505270950378,0.004928698069107,FALSE,9.60488475,TRUE,2.0107231,13,14
"mp-753","ZnSb",0.0282,16,2,391.759227280672,6.34678475784893,24.484951705042,7,61,6.22274292,90,-2.722368823125,-2.818368823125,-0.123996398125,0,TRUE,4.7378534,FALSE,0,0,81
"mp-754","Te2Rh",0,12,2,274.796366141835,8.65583749979285,22.8996971784863,3,205,6.50135172,90,-4.9511044175,-5.23243775083333,-0.68213119861111,0,TRUE,8.04817952,FALSE,1e-07,0,97
"mp-755","CoSb2",0,12,2,240.519468913396,8.35251047883077,20.0432890761163,1,14,6.37691843,116.929570799001,-5.29864353666667,-5.42664353666667,-0.304536778333334,0.0024733958333325,FALSE,8.27366279,FALSE,0,0,78
"mp-756","TbAl2",0,6,2,120.978314503371,5.84418044909661,20.1630524172284,3,227,5.55146378541979,60.0000013674323,-4.56224668833333,-4.56224668833333,-0.520407435,0,TRUE,5.83932569,FALSE,1e-06,0,78
"mp-757","Li3As",0.6365,8,2,126.432901775206,2.51497270858603,15.8041127219007,6,194,4.341471,90,-3.30835029875,-3.30835029875,-0.7118785475,0,TRUE,1.37594068,FALSE,0,0,39
"mp-759","La2Sb",0,6,2,198.182201980564,6.69589043937613,33.0303669967607,4,139,4.63605040474603,103.698764317343,-5.575424605,-5.639424605,-0.972419455,0,TRUE,8.1424403,FALSE,1.0008409,0,108
"mp-760","FeSe2",0.3741,6,2,98.5198848130827,7.20595916743525,16.4199808021805,7,58,3.58090064,90,-5.50899834833333,-5.823665015,-0.669716959895833,0,TRUE,5.97109343,FALSE,0,0,60
"mp-761","CeCu5",0,6,2,90.3087231722005,8.4185795433832,15.0514538620334,6,191,5.06263115947613,90,-4.50778503833333,-4.50778503833333,-0.102931287499999,0.0166165788541672,FALSE,7.12267063,TRUE,1.0522087,1,174
"mp-762","PtS2",1.5467,3,2,61.0435790346471,7.05127353960269,20.3478596782157,2,164,3.54874234,90,-5.13073249,-5.46606582333333,-0.684721472083333,0,TRUE,2.92059357,FALSE,0,0,94
"mp-763","MgB2",0,3,2,28.6027101354879,2.66630600214057,9.5342367118293,6,191,3.06276222,90,-5.11670982666667,-5.11670982666667,-0.13035529611111,0,TRUE,5.68073004,FALSE,1e-07,0,17
"mp-764","CeCo5",0,6,2,82.9545880371368,8.70322512623165,13.8257646728561,6,191,4.87972855000735,90,-7.02213356833333,-7.02213356833333,-0.109687213333334,0.0202926817948716,FALSE,6.3347327,TRUE,6.5375306,6,166
"mp-766","As2Ru",0.4492,6,2,101.237107711057,8.23119467448224,16.8728512851762,7,58,3.00114582,90,-6.594670975,-6.594670975,-0.397124525,0,TRUE,6.26836811,FALSE,0,0,77
"mp-767","Yb3Ge5",0,8,2,175.777040176763,8.33514335984476,21.9721300220954,6,189,6.94603402,90,-4.03725645,-4.03725645,-0.570510935625,0,TRUE,4.09699066,FALSE,0,0,268
"mp-768","TmAl3",0,4,2,73.6663015140609,5.63261007582737,18.4165753785152,3,221,4.19201623,90,-4.34192183,-4.34192183,-0.413781101666667,0,TRUE,6.03855623,FALSE,2e-07,0,95
"mp-770","DyCd",0,2,2,51.6021064818571,8.84654690402173,25.8010532409285,3,221,3.72296663,90,-3.082951975,-3.082951975,-0.318113675,0,TRUE,3.12109163,FALSE,4.8e-06,0,114
"mp-771","MnAl",0,4,2,53.6408252895133,5.071908127931,13.4102063223783,4,123,3.64199868,90,-6.726081305,-6.726081305,-0.272285743965518,0,TRUE,7.62008316,TRUE,5.388661,1,38
"mp-772","TmSi2",0,3,2,55.6155593198363,6.72106870580147,18.5385197732788,6,191,4.07995329828394,90,-5.57892297333333,-5.53158964,-0.422765812222223,0.0986250683333338,FALSE,6.76373791,FALSE,0.0005047,0,83
"mp-774","CaNi5",0,6,2,80.1658022081293,6.90898722040022,13.3609670346882,6,191,4.8749420303722,90,-5.26201566333333,-5.26201566333333,-0.11096845,0.0004997670833333,FALSE,5.9714397,TRUE,2.4030206,5,132
"mp-775","Er5Si4",0,36,2,813.71066175935,7.74353279391143,22.6030739377597,1,14,7.599294,86.5182490458315,-5.69352857027778,-5.66197301472222,-0.713098995833334,0.0240139322222221,FALSE,4.83154893,FALSE,0.2115874,0,314
"mp-776","LaCd",0,2,2,60.8042606883853,6.86334825537518,30.4021303441926,3,221,3.93228214,90,-3.254010165,-3.254010165,-0.3245617325,0,TRUE,5.64695114,FALSE,0.3486124,0,105
"mp-778","Fe2P",0,9,2,98.2608827073029,7.23274848531921,10.917875856367,6,189,5.78151718135086,90,-7.90892697111111,-7.90892697111111,-0.457811995555555,0.0005044483333271,FALSE,8.24292508,TRUE,9.3168944,6,41
"mp-782","Te2Pd",0,3,2,75.0751094935122,7.99844504143926,25.0250364978374,2,164,4.07008754,90,-4.15640486333333,-4.43773819666667,-0.615573664444444,0,TRUE,6.70355921,FALSE,4e-07,0,98
"mp-784","KZn13",0,28,2,450.280923752599,6.55994413342381,16.0814615625928,3,226,8.60330179407731,60.0003205166783,-1.31627874571429,-1.31627874571429,-0.0672026116428572,0,TRUE,2.35314666,FALSE,5e-07,0,19
"mp-786","MnSb",0,4,2,86.479093649255,6.78577895148587,21.6197734123137,6,194,4.1536549632544,89.9999931610592,-6.6758627425,-6.7718627425,-0.126354476465517,0,TRUE,7.49434015,TRUE,7.4772868,2,76
"mp-787","U3P4",0,14,2,284.891206738958,9.76865165756373,20.3493719099256,3,220,7.17960132470085,109.471218511305,-8.90036148285714,-8.90036148285714,-0.967870046190477,0,TRUE,10.30334916,TRUE,11.9999948,6,229
"mp-788","CoTe",0,4,2,70.1896391697321,8.82596523302224,17.547409792433,6,194,3.90921121990255,90,-5.1904398925,-5.4014398925,-0.275628048333333,0.0903806312500004,FALSE,9.00048527,FALSE,0.0061255,0,79
"mp-790","LuPt3",0,4,2,66.2229462311465,19.062476384928,16.5557365577866,3,221,4.04578667,90,-6.76702315,-6.76702315,-1.08343553,0,TRUE,6.44220931,FALSE,1.22e-05,0,227
"mp-793","Ca5Si3",0,16,2,432.785262382354,2.18430096634561,27.0490788988971,4,140,7.65380066375933,114.699698178335,-3.77291911875,-3.74629411875,-0.4582999325,0,TRUE,3.47737053,FALSE,0.0003968,0,108
"mp-794","CrTe",0,4,2,93.8005293317733,6.35873469762993,23.4501323329433,6,194,4.13682874557275,90,-6.4332423425,-6.6442423425,-0.246065660833333,0.14185203125,FALSE,6.30261843,TRUE,7.8887357,2,76
"mp-795","LiSi",0,16,2,247.916630672231,1.87685260028115,15.4947894170145,4,88,5.72687886865995,80.8455731656304,-3.864693219375,-3.829193219375,-0.162072771041667,0.0122455636011906,FALSE,4.68116803,FALSE,7.8e-06,0,17
"mp-796","Nb3Al",0,8,2,141.202993425049,7.19004473188991,17.6503741781312,3,223,5.20732441,90,-8.68615852875,-8.68615852875,-0.173785791249999,0.0460669752500031,FALSE,5.52989407,FALSE,2.7e-06,0,95
"mp-797","DyPd3",0,4,2,68.3694543894275,11.7008583419224,17.0923635973569,3,221,4.08903384,90,-5.93207348,-5.93207348,-0.8954654125,0,TRUE,5.27810003,FALSE,1.8e-06,0,158
"mp-799","V3S4",0,14,2,231.656730329217,4.02968472016683,16.5469093092298,6,176,9.0780899173205,90,-7.269999025,-7.55742759642857,-1.30063935678571,0,TRUE,6.00240325,FALSE,9.81e-05,0,94
"mp-800","TmB2",0,3,2,34.5782008914309,9.15102645397174,11.5260669638103,6,191,3.2594616,90,-6.59712770333333,-6.59712770333333,-0.652254715,0,TRUE,4.88110389,FALSE,2.9e-06,0,74
"mp-801","Mo3Os",0,8,2,123.229904659002,12.8835724248065,15.4037380823753,3,223,4.97628644,90,-10.9299391825,-10.9299391825,0.0111402574999992,0.0111402574999992,FALSE,8.43296353,FALSE,1.86e-05,0,160
"mp-803","DyAl2",0,6,2,119.814636820799,6.0000248000527,19.9691061367999,3,227,5.53360711788346,59.99999667447,-4.54947806833333,-4.54947806833333,-0.516831901666666,0,TRUE,5.83997558,FALSE,1e-07,0,79
"mp-804","GaN",1.7265,4,2,45.7283235892834,6.08097682012037,11.4320808973209,6,186,3.18892989,90,-6.1586123425,-6.3391123425,-0.65681686875,0,TRUE,3.4401233,FALSE,0,0,38
"mp-806","PuO",0,2,2,30.7791349461665,14.0270076383785,15.3895674730833,3,225,3.51768653077559,60,-12.066053155,-12.409553155,-2.802289634375,0.109255415,FALSE,12.16836694,TRUE,5.5827223,1,8
"mp-807","NpTe",0,2,2,61.8671555631117,9.78600904101286,30.9335777815559,3,225,4.43940781644428,59.9999979568499,-8.625483975,-8.836483975,-0.790941187708334,0.04447918265625,FALSE,9.65934937,TRUE,4.5882661,1,52
"mp-809","ThCo5",0,6,2,84.6784566919455,10.3286321081067,14.1130761153243,6,191,4.94884117212717,90,-7.30276408333333,-7.30276408333333,-0.143522879166667,0.0101513576666665,FALSE,6.23907357,TRUE,6.9325943,6,198
"mp-810","NiSb",0,4,2,68.4209699060164,8.75900826347238,17.1052424765041,6,194,3.92966998,90,-5.225266145,-5.321266145,-0.366697185,0,TRUE,9.5047695,FALSE,7e-07,0,79
"mp-811","BaPt5",0,6,2,116.965992741242,15.7974110374941,19.4943321235404,6,191,5.59198406,90,-5.85231571166667,-5.85231571166667,-0.473208788333333,0,TRUE,5.42413649,FALSE,0,0,368
"mp-812","Ho2O3",3.9458,40,2,582.796000130181,8.61295362823359,14.5699000032545,3,206,9.11408048281323,109.471229189697,-8.42320783375,-8.83540783375,-4.034431059,0,TRUE,1.30522829,FALSE,0,0,83
"mp-813","ScAl2",0,6,2,107.819192674806,3.04693147704426,17.969865445801,3,227,5.34240826737169,59.9999991601826,-5.09476231333333,-5.09476231333333,-0.486888724999999,0,TRUE,6.45888683,FALSE,1.3e-06,0,34
"mp-814","DySe",0,2,2,47.2680498280836,8.48255353202694,23.6340249140418,3,225,4.05845572941862,60.0000092410466,-5.794249565,-6.030249565,-1.97890040617188,0,TRUE,5.69620942,FALSE,8.7e-06,0,100
"mp-815","GaNi3",0,4,2,44.2318539301167,9.22787041529317,11.0579634825292,3,221,3.53653239,90,-5.3830329975,-5.3830329975,-0.290906481874999,0,TRUE,7.25783805,TRUE,0.9654732,3,87
"mp-817","TmTl3",0,4,2,103.503072115522,12.5472721869801,25.8757680288806,3,221,4.69516739,90,-3.0690574475,-3.0690574475,-0.178116231666667,0,TRUE,6.31189606,FALSE,0,0,231
"mp-818","SiRh",0,8,2,109.454956262078,7.94904791162433,13.6818695327597,7,62,3.08801144,90,-7.21069587625,-7.17519587625,-0.78038292625,0,TRUE,8.41254696,FALSE,3e-07,0,59
"mp-819","HfCr2",0,6,2,87.5691890756497,10.7131911045537,14.5948648459416,3,227,4.98450612383466,60.000002397805,-9.858151405,-9.858151405,-0.103723414999999,0,TRUE,5.66338281,FALSE,7.9e-06,0,96
"mp-820","HgSe",0,2,2,59.3704087793616,7.81877210569918,29.6852043896808,3,216,4.37886567026767,60.0000124180354,-2.10553765,-2.34153765,-0.441741728671875,0,TRUE,0.89328266,FALSE,2e-07,0,114
"mp-821","NbO2",0.4256,48,2,579.294522565521,5.7286212227148,12.0686358867817,4,88,6.04002471955442,85.0190889903915,-9.102010810625,-9.560010810625,-2.89511665645833,0.0033597335416661,FALSE,4.08917636,FALSE,0,0,49
"mp-823","TiCo",0,2,2,26.6267301921351,6.66044590673704,13.3133650960676,3,221,2.98611099,90,-7.90242497,-7.90242497,-0.400520064166667,0,TRUE,6.31056825,TRUE,0.8650844,2,49
"mp-825","RuO2",0,6,2,62.5155864514555,7.0691471835481,10.4192644085759,4,136,3.1113414,90,-7.38977008166667,-7.84777008166667,-1.45851009416667,0,TRUE,4.57067993,FALSE,1e-07,0,52
"mp-827","KN3",3.9394,8,2,130.91489535524,2.05782958241037,16.364361919405,4,140,5.56593442948659,101.643507228931,-6.677060985,-6.947810985,-0.417840054499999,0,TRUE,-0.18786629,FALSE,0,0,33
"mp-828","SiNi3",0,4,2,41.5562047551507,8.15823107300757,10.3890511887877,3,221,3.46374006,90,-6.1500541,-6.1323041,-0.440872082499999,0,TRUE,9.50914928,FALSE,0.0001272,0,70
"mp-829","AlPd",0,2,2,28.3872923598276,7.80343766435896,14.1936461799138,3,221,3.05052548,90,-5.33816554,-5.33816554,-0.87543672,0.0385847699999999,FALSE,9.00642493,FALSE,0,0,59
"mp-830","GaN",1.5701,2,2,22.8877464710783,6.07471067806475,11.4438732355391,3,216,3.18693029100538,60.0000029148221,-6.15332013,-6.33382013,-0.65152465625,0.0052922124999996,FALSE,3.46241013,FALSE,0,0,38
"mp-832","HoPd",0,2,2,41.8262055590229,10.772858811172,20.9131027795114,3,221,3.47122546,90,-5.794521805,-5.794521805,-0.913376465,0.0297504250000004,FALSE,3.82292426,FALSE,1e-07,0,113