"material_id","formula_pretty","band_gap","nsites","nelements","volume","density","density_atomic","crystal_symmetry","symmetry_number","sides_abc","angles_abc","uncorrected_energy_per_atom","energy_per_atom","formation_energy_per_atom","energy_above_hull","is_stable","efermi","is_magnetic","total_magnetization","num_magnetic_sites","atomic_number"
"mp-6205","Ba2Ho(CuO2)4",0,15,4,207.533040198358,6.57519606113073,13.8355360132239,7,65,13.8739817460064,90,-5.98937358933333,-6.35577358933333,-2.06306058133333,0,TRUE,2.86890514,FALSE,0.0019325,0,160
"mp-6208","Ca2BeSi2O7",4.9868,24,4,282.590737945974,3.02426607410963,11.7746140810823,4,113,7.485009,90,-7.42583550458333,-7.82658550458333,-3.39091303260417,0.0003333880555453,FALSE,2.34252635,FALSE,0,0,86
"mp-6211","RbLiSO4",5.3933,28,4,411.128590029164,3.04492686937286,14.683163929613,1,14,5.24518980958913,90,-5.73925812678571,-6.13182955535714,-2.30144931949405,0,TRUE,-0.51445871,FALSE,1.77e-05,0,80
"mp-6213","Na3Sc2V3O12",2.9985,80,4,1044.57374027645,3.20287938172415,13.0571717534556,3,230,11.0710037582067,109.471220634491,-7.30463913225,-7.97183913225,-2.80961429048276,0,TRUE,0.50736347,FALSE,0.0081881,0,89
"mp-6215","AgHgAsS3",1.2453,12,4,285.03482305581,5.58775718853802,23.7529019213175,1,9,6.68711715106211,78.4861730903187,-3.48541564833333,-3.73691564833333,-0.369464919340278,0,TRUE,2.27810913,FALSE,0.0017621,0,192
"mp-6217","LaSc3(BO3)4",4.2334,40,4,442.880946741535,3.8169670945297,11.0720236685384,1,15,6.26764587702252,99.2449204425427,-8.56116128275,-8.97336128275,-3.47279898083333,0,TRUE,2.70776222,FALSE,5e-07,0,120
"mp-6219","K3Co(CN)6",4.1716,32,4,603.349418161373,1.82929186450479,18.8546693175429,1,14,10.488323,72.6052083636339,-7.400875439375,-7.536250439375,-0.2968456180625,0.0654300102734346,FALSE,-1.9612764,FALSE,0.0001291,0,106
"mp-6223","DyNi2B2C",0,6,4,65.0734639068473,8.00036369104547,10.8455773178079,4,139,5.74460958999748,144.018519525391,-6.974960045,-6.974960045,-0.515875172638888,0,TRUE,6.52463097,FALSE,0.004911,0,105
"mp-6224","LiScSiO4",4.6123,28,4,308.999986052323,3.09494427867129,11.035713787583,7,62,4.864246,90,-7.76121646,-8.15378788857143,-3.37472148190476,0,TRUE,2.0907158,FALSE,0.0011503,0,62
"mp-6226","NaSn4(PO4)3",3.7411,40,4,698.248128391821,3.72296522678015,17.4562032097955,2,161,10.0607540855952,58.6737434761362,-6.5851680085,-6.9973680085,-2.34931877007759,0,TRUE,1.88226867,FALSE,0.0029369,0,200
"mp-6227","Ca2ZnSi2O7",4.0553,24,4,316.247452152337,3.29465996825669,13.176977173014,4,113,7.906142,90,-6.98544089375,-7.38619089375,-3.15715752635417,0.0154294459722201,FALSE,1.83384365,FALSE,0,0,112
"mp-6228","Na2TiGeO5",3.2391,18,4,236.439918097914,3.46215265463924,13.1355510054396,4,129,6.718544,90,-6.66965895111111,-7.05132561777778,-2.61832406057631,0,TRUE,1.41922328,FALSE,0.001104,0,97
"mp-6231","Ba2ErSbO6",3.3776,10,4,152.735962529171,7.17189842916905,15.2735962529171,3,225,6.00001175618865,60,-6.918771915,-7.330971915,-3.10949169525,0,TRUE,3.0244364,FALSE,8.7e-06,0,215
"mp-6233","NaSr3RuO6",0.5002,22,4,318.67865477548,5.0326631731719,14.4853933988854,2,167,6.83117998156343,90.8183977634149,-6.28768260727273,-6.66240988,-2.54008801991379,0,TRUE,2.97807575,TRUE,5.9990897,2,171
"mp-6236","Na2BeSiO4",0,64,4,659.262100426087,2.96359806025823,10.3009703191576,7,29,4.88616329,90,-6.40685441921875,-6.75035441921875,-2.80078737835668,0.0115928623437495,FALSE,1.81397487,FALSE,0,0,53
"mp-6238","Ba2Ta6Te2O21",2.8259,31,4,469.328861320788,6.90473115932109,15.1396406877673,1,12,8.91758156854878,83.5597356831046,-8.58379569096774,-9.04918278774194,-3.07654761409946,0,TRUE,1.66698328,FALSE,0.0028246,0,481
"mp-6239","Mn3Fe2(SiO4)3",2.364,80,4,856.628249496873,4.28596032668285,10.7078531187109,3,230,10.3626642599433,109.471220634491,-7.61362855725,-8.50162855725,-2.49851321118965,0.0330514887499902,FALSE,4.24758642,TRUE,100.0012987,20,114
"mp-6240","LiIn(SiO3)2",3.6724,20,4,234.074670855963,3.88649901255654,11.7037335427981,1,15,6.78873657148339,74.8448873679674,-6.9358629345,-7.3480629345,-2.82892544208333,0.0098126842500008,FALSE,2.62363044,FALSE,0.000793,0,82
"mp-6241","LiGa(SiO3)2",4.532,40,4,421.427672119915,3.60663055136682,10.5356918029979,1,14,8.726479,78.1763120696588,-7.024704816,-7.436904816,-2.89012609433333,0.04097374183333,FALSE,2.26665734,FALSE,0.0008965,0,64
"mp-6244","HoCuPbSe3",1.1844,24,4,588.206467714818,7.5946532732802,24.5086028214507,7,62,4.05788,90,-4.81666977958333,-5.05266977958333,-1.23900360575521,0,TRUE,4.27200406,FALSE,0.0044648,0,246
"mp-6245","K5Nb4O12F",3.4353,44,4,754.329234227065,3.42576966141385,17.1438462324333,1,14,12.054503,69.016327735125,-7.35337044704545,-7.74909771977273,-2.87505415625,0,TRUE,-0.4672068,FALSE,0.003664,0,208
"mp-6246","Ca2CO3F2",4.9446,32,4,391.805948684794,3.02031630343953,12.2439358963998,7,60,6.708722,90,-6.8512631015625,-7.2243881015625,-3.23652693640625,0.0280605146874926,FALSE,1.24101899,FALSE,0.0010284,0,51
"mp-6247","Na3Li3Fe2F12",3.6235,80,4,998.433934589252,2.85703563266747,12.4804241823657,3,230,10.905537480458,109.471220634491,-4.935289288875,-5.438089288875,-2.95948256335776,0,TRUE,-2.30112243,TRUE,39.9987725,8,54
"mp-6248","LiGd(PO3)4",3.4298,36,4,467.952774548805,3.4071373245771,12.9986881819112,1,15,9.01708756619037,57.1613178868122,-7.85163726777778,-8.30963726777778,-2.92083061953704,0,TRUE,0.44150796,TRUE,14.0007349,2,98
"mp-6249","Sr3Nd2(BO3)4",4.3967,84,4,1097.11962038798,4.76209931229042,13.0609478617617,7,33,7.389481,90,-7.75028522821429,-8.14285665678571,-3.34844680710317,0.0025992472619016,FALSE,1.79908692,FALSE,0.0117921,0,157
"mp-6250","BaTm2ZnO5",3.0578,36,4,495.652333560447,8.31657864128068,13.7681203766791,7,62,5.702348,90,-7.01342976916667,-7.39509643583333,-3.29911499662037,0.0266354751851816,FALSE,2.6228817,FALSE,0.002457,0,187
"mp-6252","Sr2CuTeO6",0.2198,10,4,130.661815537846,5.87626948047324,13.0661815537846,4,87,5.46713,62.0678416534157,-5.83104413,-6.24324413,-2.21308095625,0.0331624073749976,FALSE,4.37031391,TRUE,1.0012102,1,159
"mp-6253","KLiBeF4",6.8618,14,4,200.028045685066,2.17574989203574,14.2877175489333,6,173,5.13905459286365,90,-5.15139656071428,-5.41539656071429,-3.35758933947619,0,TRUE,-3.5101608,FALSE,0.0009172,0,53
"mp-6254","Ba2TbNbO6",2.9923,10,4,157.184467706426,6.57606893485141,15.7184467706426,4,87,6.06618385623961,120.274537882085,-7.865795374,-8.277995374,-3.45262004525,0,TRUE,1.98916863,FALSE,4.3e-06,0,202
"mp-6255","Ca3Sc2(SiO4)3",4.1025,80,4,945.796826082723,3.41586303921519,11.822460326034,3,230,10.7104219569854,109.471220634491,-7.90129691325,-8.31349691325,-3.5975990895,0,TRUE,2.83479667,FALSE,0.0358152,0,99
"mp-6257","CsNb(BO3)2",3.2987,20,4,309.947256103182,3.67984749335287,15.4973628051591,7,31,4.10355,90,-7.891279497,-8.303479497,-2.89991717487644,0,TRUE,-0.09973721,FALSE,0.005051,0,117
"mp-6258","CeCr2Si2C",0,6,4,83.5821037911535,6.20431354958899,13.9303506318589,4,123,3.985593,90,-8.04451557833333,-8.02084891166667,-0.467767970416666,0,TRUE,8.87962084,TRUE,0.0793718,1,102
"mp-6259","SrLi2Ta2O7",2.2063,12,4,140.223015259438,6.81388489102355,11.6852512716199,4,139,3.94070065553582,102.034814698612,-8.13034880166667,-8.53109880166667,-3.21028918288194,0.0020088529166653,FALSE,1.58155353,FALSE,0,0,162
"mp-6265","Ba2TbSbO6",3.5072,10,4,155.971557838463,6.93439543296972,15.5971557838463,3,225,6.04208460966925,60,-6.901060506,-7.313260506,-3.08511555725,0,TRUE,3.04831023,FALSE,9e-06,0,212
"mp-6267","LaSiBO5",4.1425,24,4,281.048109740674,4.56952293409026,11.7103379058614,2,152,6.88307045377432,90,-8.23126824333333,-8.66064324333333,-3.43887318557292,0.0021957874999998,FALSE,4.69283086,FALSE,0.0001497,0,108
"mp-6268","KTiPO5",2.9792,64,4,864.979430229928,3.03989253064749,13.5153035973426,7,33,6.40239156,90,-7.51735845640625,-7.94673345640625,-3.05265382808333,0,TRUE,0.62337203,FALSE,6.5e-06,0,88
"mp-6270","Ba2LiReO6",1.8198,10,4,139.623749724237,6.70522938064354,13.9623749724237,3,225,5.82315162229183,60,-7.117696314,-7.529896314,-2.74274309408333,0,TRUE,1.90746988,FALSE,4.76e-05,0,174
"mp-6272","NaEuP2O7",0,44,4,588.313266608251,3.93910718318314,13.3707560592784,1,14,8.616654,68.3909460746274,-7.69560121159091,-8.13278302977273,-2.94796911290622,0,TRUE,1.21192524,TRUE,20.3376457,11,137
"mp-6273","Ba4Na(SbO4)3",1.5158,20,4,297.745338931084,6.29966556489132,14.8872669465542,3,229,7.28599642969663,109.471220634491,-6.1663527835,-6.5785527835,-2.54126811807759,0,TRUE,3.34454889,FALSE,0.0008155,0,254
"mp-6274","Mn3Cr2(SiO4)3",2.8887,80,4,850.267975444802,4.25788669702392,10.62834969306,3,230,10.3369536977558,109.471220634491,-7.9388810325,-8.8011810325,-2.67976306043966,0.0271285089999988,FALSE,4.35544672,TRUE,84.0016845,20,112
"mp-6276","K2Cd2(SO4)3",4.2769,76,4,1151.41110582933,3.41049801814041,15.1501461293333,3,198,10.481179,90,-5.56303811223684,-5.99693284907895,-2.00555434646711,0.0045491367105263,FALSE,-0.05742722,FALSE,0,0,107
"mp-6278","Zn2Cu(AsO4)2",0.4821,13,4,165.692553350793,4.73232210310753,12.745581026984,5,2,5.157782,110.106579154076,-5.48028935692308,-5.90305858769231,-1.63302471153846,0,TRUE,1.74408156,TRUE,1.0000128,1,116
"mp-6280","Al2Si(O2F)2",5.6953,36,4,355.606641764866,3.43762492944098,9.87796227124627,7,62,4.708015,90,-7.18133443972222,-7.58933443972222,-3.53086972083333,0,TRUE,3.66726995,FALSE,0.0098634,0,44
"mp-6281","NaCa3RuO6",0.439,22,4,282.5916039102,3.99916425152482,12.8450729050091,2,167,6.56245650994885,90.448218988636,-6.40557301772727,-6.78030029045455,-2.57176758673197,0,TRUE,3.49155639,TRUE,5.9994699,2,135
"mp-6285","BaNd2Ti3O10",2.2543,64,4,861.547521006049,5.62340267428585,13.4616800157195,1,11,7.676021,82.4480618829042,-8.5160223559375,-8.9453973559375,-3.65735779546875,0.0015812115625006,FALSE,2.4741637,FALSE,0.0006045,0,160
"mp-6286","YbNi2B2C",0,6,4,64.3935844282934,8.3566315562397,10.7322640713822,4,139,5.61425049321421,142.757431192957,-6.39032710833333,-6.39032710833333,-0.442438662638889,0,TRUE,5.33326352,FALSE,3.29e-05,0,109
"mp-6287","Cu6Hg3(AsS3)4",0.2729,25,4,526.160355132757,5.26259619758178,21.0464142053103,2,146,8.62193717671986,107.510953375869,-3.9319342784,-4.1733742784,-0.4221681529,0.0015603564000006,FALSE,4.21058367,FALSE,0.0018485,0,370
"mp-6289","Ba2Ti(GeO4)2",3.7129,26,4,429.615879213934,4.60570902380063,16.5236876620744,4,100,8.848398,90,-7.13045008884615,-7.55321931961538,-2.89529568141026,0,TRUE,0.70920893,FALSE,0.0001905,0,134
"mp-6290","NaInP2O7",3.6701,44,4,585.276184585271,3.53798690656464,13.3017314678471,1,14,8.356589,68.0241030348205,-6.6498350275,-7.08701684568182,-2.58450457154258,0,TRUE,1.67412881,FALSE,0.0040165,0,123
"mp-6294","Sr2ErRuO6",0,20,4,278.56300678556,6.43279548152909,13.928150339278,1,14,5.847735,55.0138695995225,-7.1567551145,-7.5689551145,-2.87883106208333,0,TRUE,3.35086358,TRUE,5.9993859,2,190
"mp-6296","K6Cd4Sn3Se13",1.4058,26,4,1092.46362808654,3.14159189031428,42.0178318494824,2,160,10.3408038076128,94.9798546838027,-3.38917322346154,-3.62517322346154,-1.01634562744111,0.0305420392307711,FALSE,-0.18521672,FALSE,3.5e-06,0,339
"mp-6297","CaCu(GeO3)2",0,20,4,248.707291924527,4.60557938494031,12.4353645962264,1,15,6.93759944376958,77.22233156229,-6.236381143,-6.648581143,-2.14548169025,0.0543796112000025,FALSE,2.93461589,TRUE,1.9991711,2,97
"mp-6299","K2Mg2(SO4)3",5.5449,76,4,1021.79850081752,2.69765286627014,13.4447171160199,3,198,10.07214,90,-6.01661215144737,-6.45050688828947,-2.387824144625,0,TRUE,0.79742603,FALSE,0.0001497,0,71
"mp-6300","RbHgSbSe3",1.0737,24,4,813.386152569404,5.26463785826365,33.8910896903918,1,14,11.525869,73.8171393843919,-3.1821113425,-3.4181113425,-0.767952990755208,0,TRUE,1.43513741,FALSE,0.0011917,0,236
"mp-6301","Ba3CeRu2O9",0,30,4,456.996463822491,6.52761577268563,15.2332154607497,6,194,5.96724409129617,90,-7.242107105,-7.654307105,-2.67037260791667,0,TRUE,4.20634463,TRUE,4.0015774,4,278
"mp-6304","Sr2GaSbO6",1.2914,10,4,126.856090356324,6.05697084322454,12.6856090356324,4,87,5.66360335484998,120.804579740869,-6.240506066,-6.652706066,-2.63108442233333,0.0264848687500052,FALSE,3.74374365,FALSE,7.48e-05,0,160
"mp-6305","K3TiO4F3",2.5471,22,4,359.356385462981,2.64456730757789,16.3343811574082,7,63,6.35240139076775,90,-5.59744386590909,-5.78198932045455,-2.44127290180303,0.124107498311695,FALSE,0.31505972,FALSE,0.0007647,0,102
"mp-6309","La3Cu4(P2O)2",0,13,4,220.563957604145,6.22460795663451,16.9664582772419,4,139,13.7507856328643,163.064646050553,-6.26450417230769,-6.37019648,-1.54316298429487,0,TRUE,7.95319707,FALSE,0.0463367,0,224
"mp-6310","Ba3Y(BO3)3",3.8153,96,4,1418.0188886619,4.75892294633259,14.7710300902281,6,185,9.50763573505212,90,-7.70854494791667,-8.09498244791667,-3.29612184497396,0,TRUE,1.89148802,FALSE,0.1343463,0,172
"mp-6312","Sr2CuCO5",3.0484,36,4,473.588723678373,4.6394336213816,13.1552423243992,4,87,9.45830826985635,130.838453377815,-6.60395205333333,-6.98561872,-2.38114065050926,0.0432840958333313,FALSE,3.38163695,FALSE,0.0006333,0,105
"mp-6316","Er4Si2S3O7",2.8132,64,4,922.876085716,6.7178835190035,14.4199388393125,4,141,10.6786737799666,113.787519020909,-7.62260214375,-8.01747714375,-3.25762202628906,0.029275732447914,FALSE,4.57631256,FALSE,0.0088263,0,298
"mp-6318","KLiSO4",5.6979,14,4,207.53181385239,2.27402008403319,14.8237009894564,1,9,5.22727584114728,89.8364821301267,-5.762831895,-6.15540332357143,-2.30647096277976,7.57285714394484e-05,FALSE,-0.39908067,FALSE,0.0003241,0,62
"mp-6319","Na2MgAlF7",6.5404,22,4,269.546881815117,2.83696293142573,12.2521309915962,7,74,7.23119022350705,120.664277479694,-5.23023464272727,-5.52423464272727,-3.58139289369122,0,TRUE,-1.45811058,FALSE,0.0002671,0,90
"mp-6323","BaYb2CuO5",0,36,4,484.494126949316,8.59515036320578,13.4581701930366,7,62,5.648263,90,-5.99496937916667,-6.37663604583333,-2.61765363180556,0,TRUE,1.8552176,TRUE,4.0021285,8,187
"mp-6325","Ba3MgTa2O9",3.2733,15,4,212.279907947472,7.37008353044001,14.1519938631648,2,164,5.84342208917215,90,-8.04437054533333,-8.45657054533333,-3.41703997658333,0,TRUE,2.51416926,FALSE,0.0013754,0,261
"mp-6326","LiAlSiO4",5.5489,84,4,1066.83074443416,2.35355743090992,12.7003660051685,6,181,10.45943523,90,-7.22194779892857,-7.6145192275,-3.20500900297619,0.0061999877380944,FALSE,0.49773828,FALSE,1.3e-06,0,54
"mp-6327","LiAlSiO4",4.8157,21,4,277.679728959166,2.26056060654629,13.2228442361508,6,181,5.2918159236573,90,-7.2204469252381,-7.61301835380952,-3.20350812928571,0.0077008614285709,FALSE,0.51325122,FALSE,0.0007998,0,54
"mp-6328","Na2Ti2Sb2O",0,7,4,144.780673850926,4.60187780291463,20.6829534072751,4,139,4.152776,103.500849961344,-5.59800793857143,-5.75100793857143,-1.23090425121716,0,TRUE,5.21721357,FALSE,0.0325308,0,92
"mp-6330","RbUN3O11",2.5806,32,4,532.512711631561,3.37719208960373,16.6410222384863,2,167,8.55063597463236,69.8407786502575,-6.970184738125,-7.442497238125,-1.71155944554688,0,TRUE,-1.48163153,FALSE,0.0013582,0,143
"mp-6331","Na2Y2B2O7",4.1828,52,4,616.314690453982,3.85187424851194,11.8522055856535,1,14,6.295989,62.259462427698,-7.67511351615385,-8.04503659307692,-3.1555291058477,0.0043740552670907,FALSE,1.80795423,FALSE,1.21e-05,0,103
"mp-6332","Li2TiSiO5",3.2153,18,4,188.400232439569,2.99375257490444,10.4666795799761,4,129,6.476632,90,-7.37427137833333,-7.755938045,-3.10348256319444,0,TRUE,1.89757356,FALSE,4.6e-06,0,71
"mp-6333","NaIn(SiO3)2",3.4886,20,4,242.560637018206,3.97026576820251,12.1280318509103,1,15,6.84615583918713,77.1760848090646,-6.8490772465,-7.2612772465,-2.80077951140517,0,TRUE,2.95496518,FALSE,0.0018865,0,90
"mp-6336","Na3In(PO4)2",3.2187,56,4,653.923675363498,3.79612081111461,11.6772084886339,1,14,5.11566393233113,90.0000211533089,-6.23994954785714,-6.63252097642857,-2.5525656683087,0.0002240899999996,FALSE,2.25054191,FALSE,3e-07,0,110
"mp-6340","LiAl(SiO3)2",5.3733,20,4,201.227075248579,3.07125283776819,10.0613537624289,1,15,6.40997694959553,74.6761294115054,-7.401677793,-7.813877793,-3.19535109058333,0.0336421882777733,FALSE,3.24624254,FALSE,0,0,46
"mp-6342","LiCa3RuO6",0.2958,22,4,271.612280621583,3.96458886525245,12.3460127555265,2,167,6.47996067816989,91.9437098461438,-6.51937982272727,-6.89410709545454,-2.63226552143939,0,TRUE,3.30016215,TRUE,5.9915759,2,127
"mp-6345","Ba3TbRu2O9",0,30,4,451.380599154676,6.74722097493234,15.0460199718225,6,194,5.96671631768664,90,-7.11295807666667,-7.52515807666667,-2.62780511658333,0,TRUE,3.66410739,TRUE,6.0030668,4,285
"mp-6353","Y2Si4CN6",2.8384,52,4,619.504661280265,4.14077805113074,11.9135511784666,1,14,9.999551,60.3759153006837,-8.42297803038461,-8.589593415,-1.36791269275641,0,TRUE,5.64696803,FALSE,0.0013262,0,122
"mp-6356","Cd2GaAgS4",1.0437,16,4,387.623259648991,4.54670125314771,24.226453728062,7,31,6.700788,90,-3.60261874625,-3.85411874625,-0.822589869583333,0,TRUE,1.57263982,FALSE,0.0004766,0,174
"mp-6358","NaTiPO5",3.048,32,4,376.043986775214,3.2116638445742,11.7513745867254,1,14,8.582801,64.6128899700833,-7.49215650625,-7.92153150625,-3.00093608462105,0.0007957387499999,FALSE,1.5799119,FALSE,3.46e-05,0,80
"mp-6361","NaSr3NbO6",3.2962,22,4,331.127740968492,4.76157722540314,15.0512609531133,2,167,6.91993541879055,91.2416957226111,-6.885413555,-7.26014082772727,-3.06264601309561,0,TRUE,1.68036946,FALSE,0.0009056,0,168
"mp-6362","Sr2TbIrO6",0,20,4,284.546463151233,7.26408065066964,14.2273231575616,1,14,5.890886,55.1319557197075,-7.0153891225,-7.4275891225,-2.77439717708333,0,TRUE,3.45902668,TRUE,4.0021052,2,220
"mp-6368","CsSO2F",4.4107,20,4,455.246676482015,3.15101897008325,22.7623338241007,7,62,6.78145,90,-5.187268788,-5.554468788,-2.18712706221121,0.0144406015375011,FALSE,-0.72639572,FALSE,0.0005938,0,88
"mp-6372","K2Be3Zn2F12",5.787,76,4,1038.79360838688,2.96706961624335,13.6683369524589,3,198,10.127675,90,-4.93075883552632,-5.22254830921053,-3.17537613452632,0.0087197451315867,FALSE,-2.35819298,FALSE,0.0004249,0,57
"mp-6373","Li3Fe2(PO4)3",2.4096,80,4,935.971393441575,2.96228704687764,11.6996424180197,1,14,8.748623,54.7520640855568,-6.782447755375,-7.420247755375,-2.506898601625,0.0010366916250061,FALSE,1.12952123,TRUE,40.0027258,8,71
"mp-6376","KV(CuS2)2",1.076,16,4,362.569633371382,3.16373200838813,22.6606020857113,7,40,9.41910167909154,90,-5.187341109375,-5.438841109375,-1.0715263813125,0,TRUE,2.72025673,FALSE,0.0033306,0,87
"mp-6383","BaBe2Si2O7",0,48,4,536.522479065173,4.00515967951791,11.1775516471911,7,62,4.67397451,90,-7.47923042354167,-7.87998042354167,-3.30704228114583,0.0003591402083333,FALSE,2.18204972,FALSE,4.4e-06,0,122
"mp-6384","RbSO2F",4.1099,10,4,207.588357837695,2.69620760164813,20.7588357837695,1,11,4.885633,90,-5.205355417,-5.572555417,-2.188187351125,0.0117552329696959,FALSE,-1.11060174,FALSE,0,0,70
"mp-6386","K2ZnGeO4",2.7469,64,4,1020.34526839175,3.64860637797618,15.9428948186212,7,29,5.629397,90,-5.19333849390625,-5.53683849390625,-2.05054796840625,0,TRUE,-0.03576221,FALSE,0.0017563,0,105
"mp-6388","Ca4SmB3O10",4.3982,18,4,233.244107584466,3.5817219672521,12.9580059769148,1,8,9.05494625492018,84.9163294098099,-7.56357613444444,-7.94524280111111,-3.37601790777778,0,TRUE,1.68406214,FALSE,0.0001559,0,132
"mp-6389","NaLa2RuO6",0.4775,20,4,274.803295366844,6.01686951265285,13.7401647683422,1,14,6.016832,55.5747790113482,-7.397578173,-7.809778173,-2.79487074190517,0,TRUE,5.53564055,TRUE,5.9946925,2,152
"mp-6390","Rb3Ti3(PO4)5",2.4621,124,4,1785.89715971709,3.25380710564114,14.4023964493313,7,29,6.376701,90,-7.46282127693548,-7.9060470833871,-2.98255143739247,0,TRUE,0.90200552,FALSE,0.3237917,0,157
"mp-6391","Na2ZnSiO4",3.1743,16,4,198.087229141996,3.41135171850777,12.3804518213748,1,7,5.22888938763877,90,-5.789173474375,-6.132673474375,-2.49306509038793,0,TRUE,1.00331604,FALSE,1e-06,0,79
"mp-6392","NaBePO4",5.8139,84,4,933.06087836775,2.71164489270094,11.1078675996161,1,14,7.897673,60.238830322912,-6.79592291892857,-7.1884943475,-2.86535213176929,0,TRUE,1.27393549,FALSE,0.0007031,0,54
"mp-6394","RbTiAsO5",2.9468,64,4,999.221616228512,3.83223120081752,15.6128377535705,7,33,6.791637,90,-6.91441710421875,-7.34379210421875,-2.56021859791667,0,TRUE,0.2356915,FALSE,8.3e-06,0,124