"material_id","formula_pretty","band_gap","nsites","nelements","volume","density","density_atomic","crystal_symmetry","symmetry_number","sides_abc","angles_abc","uncorrected_energy_per_atom","energy_per_atom","formation_energy_per_atom","energy_above_hull","is_stable","efermi","is_magnetic","total_magnetization","num_magnetic_sites","atomic_number"
"mp-5678","ErB2Rh3",0,6,3,77.8554007166699,10.6130092528774,12.975900119445,6,191,3.14256816781776,119.999075736067,-7.37793718333333,-7.37793718333333,-0.708032856388889,0.0122056085294151,FALSE,6.10035034,FALSE,2e-07,0,163
"mp-5679","CdSO4",3.0499,12,3,146.792912894848,4.71655681909819,12.2327427412374,7,31,4.70415307,90,-5.5040347225,-5.9620347225,-1.8210189771875,0.0105880408333307,FALSE,0.89972923,FALSE,0,0,88
"mp-5680","Ca(PO3)2",5.4485,72,3,915.699623539781,2.87275986484894,12.7180503269414,1,14,7.72256749,89.6442015525505,-7.23833467458333,-7.69633467458333,-2.97274165671296,0,TRUE,1.03386863,FALSE,0,0,51
"mp-5682","Th(SiNi)2",0,5,3,78.7930055024402,8.5478116551902,15.758601100488,4,139,4.07518268252864,111.534661492668,-6.821642474,-6.793242474,-0.828288939999999,0,TRUE,8.75975372,FALSE,0,0,132
"mp-5683","U(MnSi)2",0,5,3,76.8682222258519,8.72901654865904,15.3736444451704,4,139,5.81931040720264,141.172289515561,-8.477608854,-8.449208854,-0.355993523172414,0.0387505250000028,FALSE,9.0920112,TRUE,3.8817059,3,131
"mp-5684","Ce2CuGe6",0,9,3,185.539229841102,6.97742545947429,20.6154699823447,7,38,10.990798314274,90,-5.27696898,-5.27696898,-0.421018745555555,0.0236863115277774,FALSE,7.00728934,TRUE,1.0103076,2,247
"mp-5688","Er(FeSi)2",0,5,3,72.9853784254975,7.62453883235036,14.5970756850995,4,139,3.86087319250296,110.142458994897,-7.151275232,-7.122875232,-0.651195774,0,TRUE,6.39235104,TRUE,1.9825932,2,108
"mp-5690","GdScO3",3.1418,20,3,251.667456867936,6.60353480375468,12.5833728433968,7,62,5.49028423,90,-10.5586225165,-10.9708225165,-3.92109102075,0.0117445718749991,FALSE,2.5016749,TRUE,27.9999996,4,101
"mp-5692","TbRhO3",0.7746,20,3,229.553384511111,8.96494281865248,11.4776692255556,7,62,5.22941294,90,-7.5327810865,-7.9449810865,-2.57723306575,0,TRUE,4.6271051,FALSE,0,0,126
"mp-5693","NaCrS2",0.990899999999999,4,3,71.2248675949826,3.24335226619266,17.8062168987457,2,166,6.76363674782663,30.6330275670969,-5.7582346,-6.0097346,-1.19761647570043,0,TRUE,4.10969451,TRUE,2.9999998,1,51
"mp-5694","NaHoS2",2.3055,4,3,89.1424885629706,4.69516867586437,22.2856221407426,2,166,3.94559338107492,73.6146808412049,-5.390522125,-5.642022125,-2.09756365070043,0,TRUE,2.11831272,FALSE,0,0,94
"mp-5696","La2Cu2O5",0,18,3,227.053640375418,7.09255568358789,12.6140911319677,7,55,3.925374,90,-6.89951942833333,-7.281186095,-2.52520041652778,0.0511919422222222,FALSE,7.77361147,TRUE,0.4228973,4,118
"mp-5699","K2CuF4",0,7,3,105.799995053097,3.41738662073167,15.1142850075853,4,139,4.08613818746358,107.093773712165,-4.26981386,-4.53381386,-2.53868236942857,0.0074122221428574,FALSE,0.24859877,TRUE,0.9999997,1,75
"mp-5700","Sr2Cu3O5",0,10,3,127.82181196535,5.79238273136813,12.782181196535,7,71,9.71127652127016,159.478319212875,-5.485917452,-5.829417452,-1.78841240470833,0.0634623449999827,FALSE,3.81173699,TRUE,0.3796935,2,128
"mp-5702","Cu3SbS4",0,8,3,154.562790733106,4.73419133116811,19.3203488416383,4,121,5.36543422549048,114.085753902158,-4.34575471375,-4.59725471375,-0.4757021240625,0,TRUE,5.16161913,FALSE,0,0,157
"mp-5704","Tl3AsS4",1.6893,32,3,916.308947615638,5.91743800199051,28.6346546129887,7,62,9.06200029,90,-3.83227204875,-4.08377204875,-0.5471661346875,0,TRUE,2.49905593,FALSE,0,0,243
"mp-5706","SnPSe3",1.3486,20,3,544.146555938278,4.71861281875447,27.2073277969139,1,14,7.895084,55.6587031770864,-4.221267141,-4.504467141,-0.522345382072917,0.0032158004999995,FALSE,3.30100471,FALSE,0.0028682,0,133
"mp-5707","CsAsF4",4.6128,12,3,246.432134212934,3.82495004677838,20.5360111844112,1,4,4.75925138,111.50635376497,-4.61635082333333,-4.92435082333333,-2.72427804882184,0,TRUE,-1.80729762,FALSE,0,0,115
"mp-5709","Tl3PO4",2.6409,16,3,316.850005064171,7.42220609529705,19.8031253165107,6,173,8.46457754012601,90,-5.5911106625,-5.9346106625,-1.89861231354167,0,TRUE,1.99439568,FALSE,0,0,201
"mp-5710","Ag3Te2Au",0.1725,24,3,572.347202751638,9.00291520023692,23.8478001146516,3,214,9.0592828290206,109.471220634491,-3.07801843583333,-3.2186851025,-0.208991469722222,0,TRUE,4.18261696,FALSE,1e-06,0,225
"mp-5711","Pr7Al7Co6",0,40,3,815.32800487545,6.22736154340895,20.3832001218863,4,127,13.960131,90,-5.47460564975,-5.47460564975,-0.3578417565,0.0476914994999999,FALSE,5.11847523,FALSE,0.0043169,0,567
"mp-5712","Cd2GeAs4",0.0449999999999999,28,3,720.651779565409,5.5038412441341,25.7375635559075,7,62,7.374769,90,-3.66813981642857,-3.66813981642857,-0.0816711028571427,0.0051087714285711,FALSE,3.00187589,FALSE,0.00061,0,179
"mp-5714","TmCo3B2",0,6,3,62.715316441805,9.72662953084901,10.4525527403008,6,191,4.93962388001674,90,-7.056776795,-7.056776795,-0.530181403333332,0,TRUE,5.39245433,FALSE,1.37e-05,0,128
"mp-5716","Ba(Mo3S4)2",0,15,3,302.037652328905,5.33003427105095,20.1358434885937,5,2,6.63183972174984,89.0656285622811,-7.56842084133333,-7.836687508,-1.16438920566667,0,TRUE,5.24265489,FALSE,1e-07,0,188
"mp-5720","Ho(SiRu)2",0,5,3,82.0585507831005,8.56472286863847,16.4117101566201,4,139,4.15801698570598,111.861979731572,-7.710702052,-7.682302052,-0.88593205,0,TRUE,6.78673995,FALSE,0,0,125
"mp-5723","ZrAlNi",0,9,3,142.488396121874,6.18466358763963,15.8320440135415,6,189,6.87406186,90,-6.66918929333333,-6.66918929333333,-0.644718246666667,0,TRUE,6.56136917,FALSE,6e-07,0,81
"mp-5724","AlPO4",5.4878,12,3,183.173895628525,2.21109623766664,15.2644913023771,1,4,5.06107896283195,90,-7.48481514,-7.94281514,-3.11854294305555,0.0031058516666817,FALSE,-0.66910683,FALSE,0,0,52
"mp-5725","CuAg3S2",0.2466,24,3,455.432518858945,6.58160351110791,18.976354952456,4,141,8.5847611259469,118.755905522976,-3.52661379875,-3.69428046541667,-0.215984729791666,0.0461936998611101,FALSE,3.6311272,FALSE,6.55e-05,0,139
"mp-5729","YAgSn",0,6,3,142.917310544943,7.33114257351557,23.8195517574904,6,186,4.7076209,90,-5.04864773,-5.04864773,-0.612448072777778,0,TRUE,5.55294694,FALSE,0,0,136
"mp-5730","Ba(BO2)2",4.7902,42,3,577.623690829309,3.84553000449952,13.7529450197454,2,161,8.39774696339561,97.0373786296833,-7.71383911047619,-8.10641053904762,-3.09719434952381,0.0004578380952349,FALSE,0.22999989,FALSE,3.3e-06,0,69
"mp-5732","La2Si2O7",4.7819,44,3,630.585127459745,4.6976271900815,14.3314801695397,1,14,8.7750691,67.2399511109487,-8.26935043045454,-8.70653224863636,-3.67476213511363,0,TRUE,3.45976349,FALSE,0,0,119
"mp-5733","CaSiO3",4.9087,60,3,797.332924207957,2.90304391106308,13.2888820701326,1,14,7.32539354,84.5361556700829,-7.49079412366667,-7.90299412366667,-3.44879731491667,0,TRUE,1.53086299,FALSE,0,0,50
"mp-5734","Ce(SiPt)2",0,5,3,88.5215479411071,11.0010665307252,17.7043095882214,4,139,5.81926415270118,137.618224833091,-6.786912714,-6.786912714,-1.001714343,0.0921864389999997,FALSE,8.61430854,TRUE,0.5108923,1,150
"mp-5735","BaTbO3",0,10,3,174.474207868477,6.55273342641514,17.4474207868477,7,74,6.27280429498498,120.411923306685,-6.991301586,-7.403501586,-3.12482015125,0.0917668097500081,FALSE,1.05805275,TRUE,1.9952547,6,137
"mp-5737","TbCuS2",1.1832,16,3,297.620815355952,6.3962292105962,18.601300959747,1,14,6.35976515550819,90,-5.62993876,-5.88143876,-1.6298206340625,0,TRUE,5.30182795,FALSE,0,0,110
"mp-5739","U2SN2",0,5,3,84.8432973146314,10.493169955757,16.9686594629263,2,164,3.82002109506051,90,-10.255983502,-10.500983502,-1.822531554625,0,TRUE,9.95176764,TRUE,3.999999,2,115
"mp-5745","Nb2CS2",0,5,3,87.448116780961,4.97419464218518,17.4896233561922,2,164,3.28996005418318,90,-8.388699482,-8.589899482,-1.04906442075,0.0219595611250014,FALSE,5.4269284,FALSE,3.5e-06,0,63
"mp-5746","MgTe2O5",2.2333,32,3,463.726673932405,5.14930150951679,14.4914585603877,7,60,5.96312093,90,-5.594376510625,-6.023751510625,-1.94620958651042,0.0074744319531241,FALSE,4.19311006,FALSE,0,0,96
"mp-5748","HfAlNi2",0,4,3,54.8142435174154,9.78064914920402,13.7035608793538,3,225,4.26385922107608,59.9999935125548,-6.9522332225,-6.9522332225,-0.636473667500001,0,TRUE,7.31555534,FALSE,1.1e-05,0,113
"mp-5749","Cr2FeSe4",0,7,3,133.782473623678,5.90421564421648,19.1117819462398,1,12,3.69287,117.996720905867,-6.36042542285714,-6.63013970857143,-0.664459414196428,0.059537469285714,FALSE,4.61459738,TRUE,8.905326,3,152
"mp-5752","Tb(SiIr)2",0,5,3,82.278369357655,12.099699782088,16.455673871531,4,139,4.06969266802213,110.758876236154,-7.727074978,-7.727074978,-1.094700874,0,TRUE,8.17390356,FALSE,8.3e-06,0,156
"mp-5756","Cu3PSe4",0,16,3,325.84868926382,5.47775502323064,20.3655430789887,7,31,6.37096518,90,-4.101588018125,-4.337588018125,-0.375766964713541,0,TRUE,4.16588252,FALSE,0,0,175
"mp-5757","CeB2Rh3",0,6,3,80.0230332357119,9.76229023969488,13.337172205952,6,191,5.49538215000517,90,-7.57409229,-7.57409229,-0.676626238888889,0.009796533452377,FALSE,7.83489014,TRUE,0.9865467,1,153
"mp-5759","Tb2Fe14B",0,68,3,910.425688057894,8.10176986512176,13.3886130596749,4,136,8.736502,90,-8.01716445529412,-8.01716445529412,-0.10372793112745,0,TRUE,4.56620289,TRUE,124.5087502,64,70
"mp-5760","NdSF",1.2363,6,3,107.688823928882,6.02313666543226,17.9481373214804,4,129,3.94220416,90,-6.59786635,-6.91953301666667,-3.31417426104167,0,TRUE,3.87236217,FALSE,0,0,85
"mp-5765","Nd(BC)2",0,10,3,110.894350273143,5.6867121562158,11.0894350273143,4,127,3.83326553,90,-7.725382584,-7.725382584,-0.408530192166667,0,TRUE,6.11441374,FALSE,0,0,71
"mp-5766","CeCuS2",0,16,3,322.453199325121,5.51619991556776,20.1533249578201,1,14,6.52903876575339,90,-5.925902385,-6.177402385,-1.6011034953125,0,TRUE,7.7032958,TRUE,3.9999999,4,103
"mp-5767","DyPO4",5.8933,12,3,142.349418673447,6.00692660519396,11.8624515561206,4,141,5.71881820866114,106.090536279244,-8.0161214675,-8.4741214675,-3.50631410222222,0,TRUE,2.17686328,FALSE,3e-07,0,105
"mp-5769","Li3SbO4",3.056,16,3,149.67360981603,4.58377608615582,9.35460061350189,1,13,5.10526801067408,90,-5.57616927625,-5.91966927625,-2.214353690625,0,TRUE,2.6938652,FALSE,0,0,81
"mp-5770","AgNO2",1.7726,4,3,63.22294054361,4.04146482234625,15.8057351359025,7,44,4.51349884490968,128.688505878964,-5.416563425,-5.760063425,-0.494456337291665,0.0754268465277787,FALSE,-0.1944926,FALSE,4.48e-05,0,62
"mp-5773","BaRuO3",0,15,3,209.273839369816,6.8174371844871,13.951589291321,2,166,7.93657384955619,42.7137699573806,-6.98347110933333,-7.39567110933333,-2.18898238658333,0,TRUE,4.2514856,TRUE,2.0479731,4,116
"mp-5777","BaTiO3",2.293,5,3,65.5731074167134,5.90523727456759,13.1146214833427,7,38,3.98333387,90.254516816165,-8.011233802,-8.423433802,-3.49252718391667,0.0004731800000001,FALSE,2.85356728,FALSE,0,0,94
"mp-5778","AlVFe2",0,4,3,45.2606531502995,6.95659112753988,11.3151632875749,3,225,4.00017184539345,59.999996190436,-7.8711437,-7.8711437,-0.42876262,0,TRUE,7.29883611,FALSE,0,0,62
"mp-5779","Sm3RuO7",0,22,3,294.080890043908,7.50024965344501,13.367313183814,7,63,6.51117963195633,90,-7.96001412772727,-8.39719594590909,-3.11928849829545,0.0051591838636362,FALSE,3.03921435,TRUE,6.0009501,2,216
"mp-5782","AlAgS2",1.8992,8,3,169.433914491122,3.90020652476242,21.1792393113902,4,122,5.70249387055302,115.643205259403,-4.47016618125,-4.72166618125,-1.00890828947917,0,TRUE,2.88185789,FALSE,3e-07,0,76
"mp-5784","Na2GeO3",2.9873,12,3,163.737623257908,3.37949529939892,13.644801938159,7,36,4.86383585,119.776759350438,-5.4812068475,-5.8247068475,-2.14001608489224,0,TRUE,0.06451167,FALSE,0,0,59
"mp-5786","U(SiOs)2",0,5,3,83.4060391860538,13.4318707392973,16.6812078372108,4,139,4.17925253953733,111.831324705493,-9.434483528,-9.434483528,-0.515127342000001,0,TRUE,9.73129256,TRUE,2.053533,3,182
"mp-5787","SrCuO2",0,8,3,114.195969672722,5.32684834495745,14.2744962090903,7,63,3.59470018529446,90,-5.65600505125,-5.99950505125,-2.07898566479167,0,TRUE,3.4673245,FALSE,2e-07,0,75
"mp-5788","NaUO3",0.3702,20,3,280.298689888675,7.32268282077315,14.0149344944338,7,62,5.74520583,90,-8.3705652565,-8.7827652565,-3.29196496906034,0,TRUE,5.53290187,TRUE,4,4,119
"mp-5792","BaCuSn2",0,8,3,220.598806777303,6.59842779523316,27.5748508471629,7,63,4.67362724,104.038236454584,-3.96079738875,-3.96079738875,-0.45146605875,0,TRUE,5.51434764,FALSE,2e-07,0,135
"mp-5794","Zn(GaO2)2",2.3105,14,3,145.147501341849,6.15153883228807,10.3676786672749,3,227,5.89895224119922,59.9999912655915,-5.65692566285714,-6.04949709142857,-2.17768416285714,0,TRUE,1.84772472,FALSE,0,0,69
"mp-5795","CaMg2N2",1.9969,5,3,65.6269763743136,2.9528593961364,13.1253952748627,2,164,3.53665757,90,-5.17325478,-5.31765478,-0.941824814,0,TRUE,3.84376126,FALSE,0,0,39
"mp-5796","Ho(MnSi)2",0,5,3,78.1016505273898,7.03699493872212,15.620330105478,4,139,3.86613051805669,109.134982791315,-7.385079972,-7.356679972,-0.605264869172413,0,TRUE,6.33965782,TRUE,4.4625057,3,106
"mp-5798","Al6C3N2",0.115399999999999,11,3,125.535269663501,2.98858997419006,11.4122972421365,2,166,13.6391549364339,13.7948385831706,-6.54581426181818,-6.61145062545455,-0.535774142954545,0.0984538718181822,FALSE,8.00556838,FALSE,1.6e-06,0,84
"mp-5800","Sm3Ga5O12",4.139,80,3,963.537271303119,6.83621228909394,12.044215891289,3,230,10.7769618930636,109.471139936871,-6.954451992125,-7.366651992125,-2.9338268395,0,TRUE,1.90943462,FALSE,0,0,248
"mp-5802","Mn5(SiO4)3",0,80,3,861.737865125991,4.24656565120434,10.7717233140749,3,230,10.3832271671308,109.471220634491,-7.774499649875,-8.603699649875,-2.53138489560776,0.0791116258750079,FALSE,4.43427921,TRUE,92.0010106,20,138
"mp-5803","NbPO5",2.1631,28,3,416.213712837219,3.25357813676995,14.8647754584721,7,62,5.4026879,90,-8.18978674892857,-8.68050103464286,-2.93077944851191,0,TRUE,-0.30953917,FALSE,0,0,88
"mp-5807","Mn(SbS2)2",0,28,3,648.815639223843,4.36846426817535,23.1719871151373,7,62,3.837497,90,-5.17355872535714,-5.46098729678571,-0.608727691133005,0.0349263339285723,FALSE,5.37398377,TRUE,20.0023431,4,92
"mp-5808","RbNdTe2",1.2994,4,3,159.199799386944,5.05786860145521,39.799949846736,2,166,8.93566436210316,30.1227786607905,-4.4131427075,-4.6241427075,-1.61531938458333,0,TRUE,2.53873185,FALSE,0,0,149
"mp-5811","CsPbF3",2.9083,5,3,112.777383191302,5.84692731054879,22.5554766382605,3,221,4.83141123,90,-4.572417814,-4.849617814,-2.78112054508621,0.004437171000001,FALSE,1.69800043,FALSE,0,0,155
"mp-5813","TaNO",2.2458,12,3,162.113557150857,8.64325800263037,13.5094630959047,1,12,6.8237109471495,73.0773899562636,-10.2878800341667,-10.6372133675,-2.25689294541667,0.011279044166665,FALSE,2.1467636,FALSE,0,0,88
"mp-5816","UBC",0,6,3,72.5165893268545,11.946304493144,12.0860982211424,7,63,6.2694670313025,90,-9.51237442333333,-9.51237442333333,-0.445885332222222,0,TRUE,10.9472493,TRUE,2.217866,2,103
"mp-5818","Tl4SnS4",1.7882,36,3,1064.92179150529,6.63954541721642,29.5811608751469,1,14,8.33416466,75.6492654104828,-3.7414766925,-3.96503224805556,-0.63103848037037,0,TRUE,4.76599587,FALSE,0,0,341
"mp-5819","Pr(NiGe)2",0,5,3,84.3466460481502,7.94520199563176,16.86932920963,4,139,4.14527785235512,111.255474654754,-5.803370822,-5.803370822,-0.685923857,0,TRUE,6.30475771,FALSE,1.72e-05,0,119
"mp-5820","Ce(CoP)2",0,5,3,71.9068075330923,7.38811997078981,14.3813615066185,4,139,3.91165081850151,111.018364165233,-7.20935217,-7.20935217,-1.01408621833333,0,TRUE,9.18672532,TRUE,1.481677,3,100
"mp-5821","TaAgS3",0,10,3,186.099682317558,6.87079022867884,18.6099682317558,7,63,3.39027577,90,-6.078152065,-6.379952065,-0.960015418208334,0,TRUE,4.97278048,FALSE,1e-07,0,152
"mp-5824","Hg2NO4",1.5703,28,3,429.549685941541,7.40965970916495,15.3410602121979,1,14,6.69697879,80.298772802434,-4.45403870071429,-4.84661012928571,-0.742237200714286,0,TRUE,-0.44001223,FALSE,0,0,111
"mp-5827","CaTiO3",1.8285,5,3,58.8398576228964,3.83649797192533,11.7679715245793,3,221,3.889471,90,-8.028414542,-8.440614542,-3.49238293591667,0.0644675975000002,FALSE,3.65287293,FALSE,0,0,58
"mp-5830","Na3AsS3",2.5223,28,3,617.452505615825,2.5826895230481,22.0518752005652,3,198,8.51532417,90,-3.85470425785714,-4.07027568642857,-1.06512655986145,0,TRUE,1.54543059,FALSE,0,0,87
"mp-5831","Cu(SbO3)2",0,18,3,200.702429602791,6.66958404840605,11.1501349779328,4,136,4.61864911002561,90,-5.85308477444444,-6.31108477444444,-1.64026906138889,0,TRUE,5.96312653,TRUE,2.0000355,2,96
"mp-5832","Li2Ge7O15",2.9882,96,3,1208.00663966085,4.19175490424496,12.5834024964672,7,60,7.3883687,90,-6.31845899083333,-6.74783399083334,-2.14869351637153,0,TRUE,0.05078962,FALSE,0,0,195
"mp-5834","MgSiO3",4.7002,80,3,865.755928983405,3.08076403733658,10.8219491122926,7,61,5.245794,90,-7.19090551825,-7.60310551825,-3.2299726755,0.0061718537499979,FALSE,3.01376361,FALSE,5.08e-05,0,42
"mp-5835","Ho(CoSi)2",0,5,3,71.3084683870453,7.8934401131128,14.2616936774091,4,139,3.84088019774506,110.265573383085,-6.763075808,-6.734675808,-0.804739704000001,0,TRUE,6.65299936,FALSE,1e-07,0,108
"mp-5836","ThSiO4",4.89,12,3,161.601254637402,6.6610355185589,13.4667712197835,4,141,5.96167706733304,106.401510892011,-8.8068350075,-9.2648350075,-3.82717982,0,TRUE,3.11781514,FALSE,0,0,128
"mp-5837","LaGaO3",3.3483,20,3,244.776697806021,6.96371206713753,12.238834890301,7,62,5.559203,90,-7.247327258,-7.659527258,-3.09869340575,0.0325494031428563,FALSE,5.6420584,FALSE,0.0006026,0,104
"mp-5838","Ba2SiS4",3.0213,28,3,751.196031631004,3.81094402685355,26.8284297011073,7,62,6.82315428,90,-5.29728199107143,-5.5847105625,-1.89770093714286,0,TRUE,2.53659926,FALSE,0,0,118
"mp-5839","TiPO4",0.0581999999999993,12,3,140.073714993817,3.38662653904229,11.672809582818,7,63,4.81255248310551,90,-8.01559607833333,-8.47359607833333,-2.95767118361111,0.0717065698889225,FALSE,5.3095294,TRUE,1.9994051,2,61
"mp-5840","LiScO2",3.899,8,3,81.2144546483074,3.43072197922161,10.1518068310384,4,141,5.49377124089709,135.168982300795,-7.53544963875,-7.87894963875,-3.34525729020833,0,TRUE,1.8551828,FALSE,0,0,32
"mp-5841","RbCuC2",1.8553,4,3,101.982629299938,2.81745735983998,25.4956573249846,4,123,4.541337,90,-5.6011184025,-5.6011184025,0.283149529375,0.30605778953125,FALSE,-0.42627892,FALSE,0,0,72
"mp-5843","Ce(PO3)3",0.1595,26,3,355.982049786194,3.51745924511028,13.691617299469,7,20,7.08286514168824,89.9996938204514,-7.62779560269231,-8.10341098730769,-2.97316521221154,0,TRUE,4.7886179,TRUE,2,2,89
"mp-5848","ErZrSb",0,6,3,149.075370307602,8.47099497386234,24.8458950512671,4,139,4.25229226407846,104.021080365995,-6.52481599333333,-6.58881599333333,-0.840675766666666,0,TRUE,5.64122278,TRUE,0.6987192,2,159
"mp-5850","ErSnPd2",0,4,3,75.4871516631311,10.9726200157613,18.8717879157828,3,225,4.74383302631471,59.999994964798,-5.6261520425,-5.6261520425,-0.89188847125,0,TRUE,6.50976856,FALSE,5.5e-06,0,164
"mp-5852","Pr(SiOs)2",0,5,3,88.0869111212314,10.8872643913753,17.6173822242463,4,139,4.21834289185579,111.404023862755,-8.301072338,-8.301072338,-0.683817003000001,0,TRUE,7.01200125,FALSE,0,0,149
"mp-5853","LiSi2N3",5.0143,12,3,116.085060683,3.00772482137771,9.67375505691664,7,36,4.77771838,119.867247427048,-7.43922504833333,-7.61972504833333,-1.32488443138889,0,TRUE,5.43712886,FALSE,0,0,31
"mp-5854","LiGaO2",3.1981,16,3,171.722187220983,4.2030404435495,10.7326367013114,7,33,5.00599204,90,-5.743610001875,-6.087110001875,-2.37951092395833,0,TRUE,0.3076022,FALSE,0,0,42
"mp-5857","MgAl2O4",4.9766,28,3,247.321607347339,3.82073717473673,8.83291454811926,7,62,2.814484,90,-7.00902589642857,-7.401597325,-3.27614210285714,0.0988991514285722,FALSE,5.84499234,FALSE,0.0016046,0,49
"mp-5858","CdPtF6",2.1901,8,3,109.116910060024,6.41415711092693,13.639613757503,2,148,5.70333753289489,52.8279330047046,-3.97087229875,-4.31737229875,-2.009510188125,0,TRUE,-1.35498027,FALSE,0,0,171
"mp-5859","AlPO4",5.508,72,3,1500.0763517581,1.61997798707363,20.834393774418,6,184,14.0972064170931,90,-7.47696796986111,-7.93496796986111,-3.11069577291667,0.0109530218055695,FALSE,-2.21065242,FALSE,0.0001287,0,52