"material_id","formula_pretty","band_gap","nsites","nelements","volume","density","density_atomic","crystal_symmetry","symmetry_number","sides_abc","angles_abc","uncorrected_energy_per_atom","energy_per_atom","formation_energy_per_atom","energy_above_hull","is_stable","efermi","is_magnetic","total_magnetization","num_magnetic_sites","atomic_number"
"mp-3570","NdPPd",0,6,3,121.270427425313,7.71279849971141,20.2117379042189,6,194,4.21883671,90,-6.362022345,-6.362022345,-1.24157842861111,0,TRUE,5.84643467,FALSE,0,0,121
"mp-3572","Gd2(MoO4)3",3.1014,68,3,1224.84578714574,4.30744000377083,18.0124380462609,7,32,10.636221,90,-8.64850932088235,-9.69850932088235,-2.63677641823529,0,TRUE,2.28207976,TRUE,55.9975437,8,130
"mp-3574","MnAlCu2",0,4,3,51.9106864494219,6.68594317815261,12.9776716123555,3,225,4.1872021012607,60,-5.407350535,-5.407350535,-0.130849419482758,0.0408403645114949,FALSE,7.33968738,TRUE,3.5015772,3,67
"mp-3575","Ca3(BO3)2",4.8224,22,3,253.631806902754,3.1144611325188,11.5287184955797,2,167,6.34518702839628,85.9428856857931,-7.37375701227273,-7.748484285,-3.28887378962121,0,TRUE,2.06670923,FALSE,0,0,61
"mp-3576","HfGaCo2",0,4,3,53.3834533275857,11.3872200219384,13.3458633318964,3,225,4.22643245865668,59.9999983610024,-7.2925749475,-7.2925749475,-0.492094786875001,0,TRUE,5.57236942,TRUE,1.0214256,3,130
"mp-3579","UGeSe",0,6,3,135.436013459432,9.5542390831752,22.5726689099054,4,139,9.15700744774586,155.150537238473,-7.27305576,-7.43038909333333,-0.96027264578125,0,TRUE,8.46862475,TRUE,4.5786028,2,158
"mp-3581","Ta4MnS8",0,26,3,485.556841037324,7.08082844715193,18.6752631168202,6,194,6.68174604960911,89.9999734542894,-7.96157269884615,-8.27111116038462,-1.37228617984085,0,TRUE,5.27959533,TRUE,8.2109295,2,356
"mp-3582","Mg(BC)2",1.0169,40,3,380.087796892242,2.44474148964258,9.50219492230605,7,64,7.19993164266613,90,-6.8296820095,-6.8296820095,-0.146403094166666,0,TRUE,4.83258861,FALSE,0,0,23
"mp-3583","U2AsN2",0,5,3,86.6874064235693,11.0908866299811,17.3374812847139,2,164,3.83672036392444,90,-10.09127674,-10.23567674,-1.452691085,0,TRUE,9.22383736,TRUE,2.9999998,2,132
"mp-3584","NdPO4",5.6788,24,3,293.089693514636,5.42118186539223,12.2120705631098,1,14,6.96977536,53.7263262348948,-7.9877385325,-8.4457385325,-3.45103773513889,0,TRUE,2.53400131,FALSE,0,0,99
"mp-3585","La(SiIr)2",0,5,3,88.2397248285013,10.9055164984819,17.6479449657003,4,139,4.12985563092094,110.335879884243,-7.748216042,-7.719816042,-1.027113737,0,TRUE,9.67564084,FALSE,0,0,148
"mp-3587","Sc(SiNi)2",0,5,3,68.7138395890794,5.28060369692175,13.7427679178159,4,139,3.80537633456557,110.41385163975,-6.543970772,-6.515570772,-0.766895066999999,0,TRUE,7.66163208,FALSE,1e-07,0,63
"mp-3589","BPO4",7.2565,6,3,62.7732947882106,2.79825593432469,10.4622157980351,4,82,4.3438443977916,118.664054942323,-7.62073409833333,-8.07873409833333,-2.76549257791667,0,TRUE,0.44506705,FALSE,0,0,44
"mp-3591","NdBRh3",0,5,3,75.8563387221127,10.1521822120721,15.1712677444225,3,221,4.23316728,90,-7.404379794,-7.404379794,-0.696287231333333,0,TRUE,5.72959537,TRUE,0.727495,3,155
"mp-3592","KAuS5",1.7779,28,3,716.697336101167,3.67363365216161,25.5963334321845,7,72,10.3849307514893,131.593048717924,-3.91645293642857,-4.27573865071429,-0.694805753375,0,TRUE,1.55561989,FALSE,0,0,162
"mp-3593","Ta2Sn2O7",1.4862,22,3,308.716569660986,7.65207151142725,14.0325713482267,3,227,7.58621207252262,60,-8.25744337,-8.69462518818182,-2.66175973829545,0.0543056613636387,FALSE,5.3053903,FALSE,8.43e-05,0,171
"mp-3594","Gd3GaO6",2.7289,20,3,277.613163261879,7.62602774324152,13.8806581630939,7,36,5.48258718,102.833697734456,-10.596543098,-11.008743098,-3.515083597,0,TRUE,1.98379211,TRUE,42.0000001,6,199
"mp-3595","ZnSiAs2",0.8866,8,3,171.94529125925,4.7000037543029,21.4931614074063,4,122,5.6069630658858,114.52000142041,-4.19762225375,-4.19762225375,-0.19679764125,0,TRUE,3.55741743,FALSE,0,0,77
"mp-3597","BaRuO3",0,20,3,278.846548770089,6.82196599074758,13.9423274385044,6,194,5.78154875585301,90.0000157541258,-6.976853777,-7.389053777,-2.18236505425,0.0066173323333345,FALSE,4.37059066,TRUE,8.0185275,10,116
"mp-3598","BaRuO3",0,30,3,415.019328289728,6.87539667195531,13.8339776096576,6,194,5.7985239233968,90,-6.95949119433333,-7.37169119433333,-2.16500247158333,0.0239799149999999,FALSE,4.38960844,TRUE,7.3465312,6,116
"mp-3601","BaUS3",0,20,3,571.398791001181,5.48148662739584,28.569939550059,7,62,7.2908132,90,-6.8447245495,-7.1465245495,-2.022577639375,0,TRUE,4.96565268,TRUE,7.9999999,4,180
"mp-3602","YAl4Ni",0,12,3,203.959518718125,4.16072678717552,16.9966265598437,7,63,4.04823847566409,90,-5.09515183666667,-5.09515183666667,-0.556999984444445,0,TRUE,6.9517866,FALSE,1e-07,0,106
"mp-3603","Ce3(BN2)2",0,9,3,116.845859134271,7.07721392583989,12.9828732371412,7,71,3.52374719762078,119.205776686929,-8.56030909111111,-8.72075353555556,-1.55363901259259,0,TRUE,9.13755156,TRUE,1.925867,3,128
"mp-3605","Th(CoGe)2",0,5,3,83.3226205649344,9.86854612616301,16.6645241129869,4,139,4.1592160605397,111.622893769389,-6.794363516,-6.794363516,-0.619053606,0,TRUE,7.41809397,TRUE,1.7321155,2,149
"mp-3606","MnSiN2",0.526,16,3,178.057668813046,4.14205546410942,11.1286043008154,7,33,5.1227,90,-8.4428464825,-8.6233464825,-0.808265689482759,0.130475143124999,FALSE,6.85908293,TRUE,19.9993823,4,46
"mp-3608","LuAgSn",0,9,3,202.333450420682,9.88637553829144,22.4814944911868,6,189,7.26148358,90,-4.29864477666667,-4.29864477666667,-0.510951983888889,0.0104973800000003,FALSE,5.70443101,FALSE,2e-07,0,168
"mp-3611","Dy2Hf2O7",3.2281,22,3,282.682416842159,9.32797906967914,12.8492007655527,3,227,7.36667083189203,60,-9.37404740954545,-9.81122922772727,-4.01534079875,0.000675435454541,FALSE,2.51892203,FALSE,0,0,186
"mp-3612","NbSbO4",2.3948,24,3,335.140133845113,5.52285302193136,13.9641722435464,7,52,5.01633864,90,-7.73520496458333,-8.19320496458333,-2.52369477708333,0.0002863316666648,FALSE,3.38839573,FALSE,0,0,116
"mp-3613","NaErS2",2.3245,4,3,88.1263709883719,4.79318369025775,22.031592747093,2,166,6.96801341361961,32.7604140607866,-5.3890130225,-5.6405130225,-2.09972706320043,0,TRUE,2.19000351,FALSE,0,0,95
"mp-3614","KTaO3",2.0995,5,3,63.7546200303669,6.98142604191777,12.7509240060734,3,221,3.99488137,90,-8.227823914,-8.640023914,-3.07837537185,0,TRUE,1.68905649,FALSE,0,0,108
"mp-3615","Nd(BO2)3",5.4208,20,3,202.626640398655,4.46912124835803,10.1313320199327,1,15,6.35282385872805,62.792699663445,-8.2005082075,-8.6127082075,-3.16406270625,0.0119701266874994,FALSE,2.06145179,FALSE,0,0,73
"mp-3618","Sc2FeSi2",0,10,3,161.359559759046,4.15604803193857,16.1359559759046,1,12,3.9788122501996,82.4132331928793,-7.172097753,-7.143697753,-0.746578656999999,0,TRUE,6.39803843,FALSE,0.0041022,0,61
"mp-3622","Na2PdF4",1.1393,14,3,185.32990057966,4.09276376009441,13.2378500414043,1,14,3.36994688959959,90,-4.31502416714286,-4.57902416714286,-2.36890298615764,0,TRUE,0.24278911,FALSE,0,0,84
"mp-3623","MnAlCo2",0,4,3,45.3080078946967,7.32215847786916,11.3270019736742,3,225,4.00156540798542,60.0000038805923,-7.150253015,-7.150253015,-0.369196336982759,0,TRUE,6.61087155,TRUE,4.1265224,3,65
"mp-3626","SrZrO3",3.416,20,3,279.027478399484,5.39990308071661,13.9513739199742,7,63,5.81486457805265,90,-8.258066024,-8.670266024,-3.65481398058333,0.0081951515000007,FALSE,1.88233173,FALSE,0,0,94
"mp-3627","Eu(Mo3S4)2",0,15,3,282.823848311341,5.77807125578641,18.8549232207561,2,148,6.56522530956865,89.1423980429538,-8.12369745933333,-8.391964126,-1.16379736633333,0,TRUE,5.79820207,TRUE,6.1722238,7,195
"mp-3629","Y2(WO4)3",4.5232,68,3,1551.37802928005,3.94461000836962,22.8143827835302,7,60,10.308737,90,-8.01618313014706,-9.28430077720588,-2.74503033887255,0.0271857707352918,FALSE,-2.4837499,FALSE,0.000159,0,137
"mp-3630","HoInAu",0,9,3,202.388894584391,11.7339001990196,22.4876549538212,6,189,7.64242156000007,90,-4.27279051111111,-4.27279051111111,-0.736798977777778,0,TRUE,6.14555028,FALSE,2e-07,0,195
"mp-3632","YSF",2.5593,12,3,235.373494860303,3.94988251671028,19.6144579050252,6,194,4.03178859,90,-7.11977108083333,-7.4414377475,-3.26997109826389,0.0264981424999994,FALSE,2.06313217,FALSE,2e-07,0,64
"mp-3633","Er(Al2Fe)4",0,13,3,187.607992569731,5.36812157105428,14.4313840438255,4,139,6.62119672264071,98.1337237138362,-5.69391103,-5.69391103,-0.431417930769231,0,TRUE,7.15535357,TRUE,6.8483765,5,159
"mp-3635","LiBO2",5.226,16,3,146.979728792755,2.2482868263035,9.18623304954719,1,14,4.35917928,113.564011840338,-7.015549703125,-7.359049703125,-2.738626688125,0,TRUE,-0.23474144,FALSE,0,0,16
"mp-3637","YOF",4.9203,6,3,78.5640656927165,5.23768353429633,13.0940109487861,2,166,6.66708528939655,33.0770583516121,-8.28806116166667,-8.67106116166667,-4.22951489763889,0,TRUE,1.64431487,FALSE,0,0,56
"mp-3638","Cu2P2O7",0,22,3,243.926625729359,4.09861706924291,11.0875738967891,1,15,5.34516435444131,76.8381321936153,-6.47007438454546,-6.90725620272727,-2.02981626344697,0,TRUE,2.81470836,TRUE,4.0000002,4,92
"mp-3640","Nb6Si7Ni16",0,29,3,349.798753863549,8.03750853373617,12.0620259952948,3,225,7.90857692014767,60.0038691654439,-7.18254664689655,-7.16540871586207,-0.576883083793103,0,TRUE,8.59809582,FALSE,5.71e-05,0,289
"mp-3642","ScCuO2",2.3309,8,3,102.273116645103,4.56242908819746,12.7841395806379,6,194,3.22138292,90,-7.4632760525,-7.8067760525,-2.725512753125,0,TRUE,3.53734489,FALSE,0,0,58
"mp-3647","LiGaS2",2.9262,16,3,319.853576962305,2.92376204841296,19.990848560144,7,33,6.24043536,90,-4.32832901125,-4.57982901125,-1.27734935552083,0,TRUE,1.22103818,FALSE,0,0,50
"mp-3648","Zn2CuAu",0,4,3,56.7814386035163,11.4442274405331,14.1953596508791,3,225,4.31426773534108,60.0000047396147,-2.619928635,-2.619928635,-0.1467846625,0.0090421750000002,FALSE,5.56630216,FALSE,1e-07,0,138
"mp-3650","HfCu2Te3",0.0517000000000003,12,3,299.803109990493,7.62557268855877,24.9835924992077,1,12,4.0768555907599,98.6353683482851,-5.06905280666667,-5.28005280666667,-0.682466131666667,0,TRUE,5.86648064,FALSE,0,0,205
"mp-3651","Nd(SiRh)2",0,5,3,84.835389171046,7.95129047419682,16.9670778342092,4,139,4.09349513373784,110.546210599089,-7.157624588,-7.129224588,-1.0597447415,0,TRUE,6.92122215,FALSE,4.1e-06,0,119
"mp-3652","Ta9(FeS3)2",0,34,3,613.461017457597,10.4625260346542,18.042971101694,6,189,10.3831494751575,90.0000429512339,-9.48066979647059,-9.65819920823529,-0.924155661691175,0,TRUE,5.78116271,FALSE,0,0,642
"mp-3653","Mg(SbO3)2",1.0375,18,3,201.374370011299,6.00016425060655,11.1874650006277,4,136,4.66240552,90,-6.16329882777778,-6.62129882777778,-2.22814162805556,0,TRUE,5.14520372,FALSE,0,0,79
"mp-3654","RbCaF3",6.3971,5,3,88.3761182376321,3.42984602336079,17.6752236475264,3,221,4.45428814,90,-5.18538844,-5.46258844,-3.718474269,0,TRUE,-2.27993741,FALSE,0,0,75
"mp-3657","TiCo2Si",0,4,3,46.6930964779775,6.89274995591359,11.6732741194944,3,225,4.04193377519137,60.0000046848652,-7.5614402925,-7.5436902925,-0.659328883333334,0,TRUE,8.10358595,TRUE,2.000001,2,63
"mp-3660","LiB3O5",6.3614,36,3,318.681108318902,2.488007023256,8.85225300885839,7,33,5.21748754,90,-7.61659913027778,-7.99826579694444,-2.8115389374537,0.006568469722235,FALSE,0.56806493,FALSE,0,0,45
"mp-3663","Ta4GaSe8",0,13,3,285.242466095664,8.29677014912126,21.9417281612049,3,216,7.38882413386331,60.000293968037,-6.77935021384615,-7.06981175230769,-1.03700418586538,0.0197418266826909,FALSE,4.65612798,FALSE,3.91e-05,0,488
"mp-3664","NdTlS2",1.6456,4,3,112.726495880833,6.08017037379356,28.1816239702083,2,166,7.85568512976744,30.8004914769946,-5.3015572375,-5.5530572375,-1.70213465927083,0,TRUE,3.57629396,FALSE,0,0,157
"mp-3666","LiTaO3",3.7003,10,3,105.124894843694,7.45208282450324,10.5124894843694,2,161,5.47684765681798,55.8994050706702,-8.437105455,-8.849305455,-3.12795212891667,0,TRUE,1.28166655,FALSE,0,0,92
"mp-3667","P2S2O3",3.974,28,3,566.44933856898,2.04120312668335,20.2303335203207,4,120,9.40009830728622,122.183450929535,-6.08411726142857,-6.52226011857143,-1.6737499927381,0,TRUE,-0.66807053,FALSE,0,0,47
"mp-3668","CdGeP2",0.6455,8,3,179.813290239066,4.56196199901833,22.4766612798833,4,122,5.75526835300224,115.096122025445,-4.18507101125,-4.18507101125,-0.0919403541666659,0,TRUE,3.01166382,FALSE,0,0,95
"mp-3669","Mn(NbS2)4",0,26,3,490.634258613422,4.62375761790667,18.8705484082085,6,194,6.73513154550204,90.0000601625607,-7.42487254346154,-7.734411005,-1.37603912907162,0,TRUE,5.00432484,TRUE,7.6953264,2,82
"mp-3671","NaNbO3",2.3565,40,3,481.970670796892,4.51733661427068,12.0492667699223,7,57,5.5248728,90,-7.672422605,-8.084622605,-2.83184331156034,0.0144399970000002,FALSE,1.28758027,FALSE,0,0,68
"mp-3676","MgCu4Sn",0,6,3,85.1583150918181,7.74515625401122,14.193052515303,3,216,4.93833699660256,59.9999933669011,-3.79437012,-3.79437012,-0.126590355833333,0,TRUE,6.91174387,FALSE,1e-07,0,149
"mp-3677","MgSiN2",4.275,16,3,169.704673017521,3.14696854678162,10.6065420635951,7,33,4.98462404,90,-7.098594643125,-7.279094643125,-1.354447660625,0,TRUE,5.44106518,FALSE,0,0,33
"mp-3678","Tb(SiRu)2",0,5,3,82.9648490555151,8.35097353961297,16.592969811103,4,139,4.16823389885246,111.801843469568,-7.723283238,-7.694883238,-0.88812179,0,TRUE,6.85590082,FALSE,4e-07,0,123
"mp-3679","NiSbS",0,12,3,208.39059030636,6.77372438078948,17.36588252553,3,198,5.92869820040233,90.0009739482286,-4.99686503583333,-5.2285317025,-0.546669106875,0,TRUE,8.45948739,FALSE,0.0005465,0,95
"mp-3680","Er2Fe14B",0,68,3,900.150522357853,8.31723809421154,13.2375076817331,4,136,8.716964,90,-8.02319412926471,-8.02319412926471,-0.117598462745096,0,TRUE,4.53059573,TRUE,123.816531,64,73
"mp-3682","KCuF3",0,10,3,135.103562277527,3.92421395550073,13.5103562277527,4,140,5.75495727331541,119.838152721422,-4.27128816,-4.54848816,-2.3596796561,0.0023876400000002,FALSE,0.88815155,FALSE,0.0107941,0,66
"mp-3683","Ho3(CuGe)4",0,11,3,189.120801212001,9.12743813009463,17.1928001101819,7,71,4.15963898784024,114.595231326692,-5.04859857363636,-5.04859857363636,-0.627129054545454,0,TRUE,5.91542235,FALSE,0,0,259
"mp-3686","YbBRh3",0,5,3,70.3678193612939,11.6236027222608,14.0735638722588,3,221,4.12849121,90,-6.673009264,-6.673009264,-0.610624531833333,0,TRUE,5.02040706,FALSE,9.9e-06,0,165
"mp-3688","Er2Sn2O7",2.6825,22,3,276.150156893719,8.22522649737463,12.5522798588054,3,227,7.30948474476082,60,-7.30196902045455,-7.73915083863636,-3.03175062875,0,TRUE,4.19991874,FALSE,0,0,166
"mp-3689","NdCo4B",0,12,3,153.953096142369,8.43003577871102,12.8294246785307,6,191,5.09960570096875,90,-6.8630768875,-6.8630768875,-0.216275156944444,0.0213318916569749,FALSE,4.97064771,TRUE,7.001387,10,146
"mp-3693","HoBPd3",0,5,3,80.1853211410746,10.2508665948027,16.0370642282149,3,221,4.312194,90,-5.991263714,-5.991263714,-0.630974499833333,0.112943182090911,FALSE,5.09577252,FALSE,8e-07,0,164
"mp-3694","NdPS4",1.995,48,3,1164.63327765052,3.46157622824461,24.2631932843857,4,142,12.4203564704147,127.682109271556,-5.518152591875,-5.85348592520833,-1.39894435743056,0,TRUE,2.6479231,FALSE,0,0,123
"mp-3696","UNb3O10",0,28,3,396.992151581731,5.66135429911449,14.1782911279189,7,70,10.3901400461127,77.8318983624527,-9.20474798785714,-9.69546227357143,-3.19101854196429,0.022634140578253,FALSE,3.87314502,TRUE,1.999589,2,174
"mp-3698","SrAlSi",0,3,3,74.7559309328347,3.16947965112816,24.9186436442782,6,187,4.24977964,90,-4.01912548666667,-3.99545882,-0.375329715555556,0,TRUE,4.45072699,FALSE,4.4e-06,0,65
"mp-3699","CoAsS",0,12,3,175.757353194152,6.27037894034309,14.6464460995127,1,14,5.613118,87.4460701497535,-5.54957035166667,-5.71723701833333,-0.415941662708333,0.200923501666667,FALSE,6.81896759,FALSE,4.3e-05,0,76
"mp-3700","LiYF4",7.8778,12,3,141.880453645619,4.02236945780778,11.8233711371349,4,88,5.13609686552999,113.241019939187,-6.4023526175,-6.7103526175,-4.04013430916667,0,TRUE,-1.94888555,FALSE,0,0,69
"mp-3701","Sc(Al2Fe)4",0,13,3,183.84459317162,4.37333207550682,14.1418917824323,4,139,4.96475622344512,81.7874208757317,-5.82376748538462,-5.82376748538462,-0.425524363461538,0,TRUE,7.34023736,TRUE,6.6560641,5,112
"mp-3702","FeCuPt2",0,4,3,55.0724061647642,15.3641848098331,13.768101541191,4,123,3.53956901,90,-6.35516591,-6.35516591,-0.17729228,0.0183555399999999,FALSE,6.68502926,TRUE,4.2439802,4,133
"mp-3704","Cs2Mn3Se4",0,18,3,558.043115201156,4.44243222436916,31.0023952889531,7,72,6.28157784980812,74.6928772519662,-5.53674797833333,-5.74652575611111,-0.939803919336686,0,TRUE,2.31260517,TRUE,29.9999993,6,207
"mp-3706","Ho2Co12P7",0,21,3,246.231077130263,8.4559145328388,11.7252893871554,6,174,8.91582567852155,90.000000460188,-7.10958268857143,-7.10958268857143,-0.806832744444445,0,TRUE,7.87105392,TRUE,6.5869105,12,157
"mp-3707","CaGe2O5",2.4523,16,3,183.176560473917,4.81101231377675,11.4485350296198,1,15,5.49146294464588,76.3882083669432,-6.576851231875,-7.006226231875,-2.50808883859375,0.0058800158750003,FALSE,3.35432461,FALSE,0,0,84
"mp-3708","Tl(FeTe)3",0,14,3,329.033032266938,7.61771067660593,23.5023594476384,6,176,9.45290982706516,90,-5.44498297642857,-5.62584011928571,-0.311179482619047,0.0307919857954548,FALSE,6.03346788,TRUE,12.2684594,6,211
"mp-3709","Tb(CoGe)2",0,5,3,77.7550081349076,9.01378097680616,15.5510016269815,4,139,3.92874913395839,109.966164493936,-6.235259938,-6.235259938,-0.615848458,0,TRUE,6.02547071,FALSE,9e-05,0,124
"mp-3710","HoBRh3",0,5,3,72.2970937523647,11.1271573237141,14.4594187504729,3,221,4.16588183,90,-7.476134166,-7.476134166,-0.805189315833333,0,TRUE,5.72779266,TRUE,0.6651276,4,162
"mp-3715","CoGeTe",0.0469999999999997,24,3,425.455826965001,8.09235061384537,17.7273261235417,7,61,6.16584877,90,-5.18356476125,-5.32423142791667,-0.366014246805555,0,TRUE,7.59528717,FALSE,1e-07,0,111
"mp-3716","TbNiSb",0.331,3,3,63.5197652503177,8.87206793866507,21.1732550834392,3,216,4.47858958015693,60.0000049606198,-5.75037622,-5.81437622,-0.966541546666666,0,TRUE,6.57062342,FALSE,0,0,144
"mp-3717","LuBRh3",0,5,3,70.8309559167412,11.592776418746,14.1661911833482,3,221,4.13754512,90,-7.491095512,-7.491095512,-0.832442331833333,0,TRUE,5.720234,FALSE,0.0386781,0,166
"mp-3718","ThTeO",0.2424,6,3,133.145317133678,9.36962246418534,22.1908861889463,4,129,4.1293283,90,-7.79356895833333,-8.163235625,-2.99528467347222,0,TRUE,7.89511173,FALSE,0,0,150
"mp-3719","Rb3NbS4",2.3577,32,3,1050.91451976957,3.01841210412224,32.841078742799,7,62,9.65318335,90,-4.9329512703125,-5.1844512703125,-1.4858629296875,0,TRUE,0.08139718,FALSE,0,0,163
"mp-3721","SrHfO3",4.0578,10,3,135.600497491797,7.69302394736362,13.5600497491797,4,140,5.7867112480699,120.670392325826,-8.692802859,-9.105002859,-3.80765313558333,0.0060620920000005,FALSE,2.16854037,FALSE,0,0,126
"mp-3726","Li2GaPt",0,4,3,54.1372906026064,8.54815538015505,13.5343226506516,3,216,4.24623395127424,59.9999923232635,-3.8890415925,-3.8890415925,-0.659772823541666,0,TRUE,4.11499346,FALSE,4e-06,0,112
"mp-3727","Nd3NbO7",2.646,22,3,317.054662612318,6.67901549929088,14.4115755732872,7,63,6.64801780210361,90,-8.56041650045455,-8.99759831863636,-3.63100119897727,0.0134118365909081,FALSE,2.35864583,FALSE,0,0,209
"mp-3731","LiNbO3",3.3358,40,3,429.062361957696,4.57748585159453,10.7265590489424,2,161,5.15394329037211,87.5703645689712,-7.858139836,-8.270339836,-2.90028102791667,0,TRUE,0.92710072,FALSE,0,0,60
"mp-3732","Ti2CS",0,8,3,99.8873293896709,4.64842678562258,12.4859161737089,6,194,3.20542782,90,-8.54093911125,-8.66668911125,-1.37766426307292,0,TRUE,8.20808649,FALSE,0,0,44
"mp-3733","BeTl2F4",0,28,3,457.684702916693,7.16587944800314,16.3458822470247,7,62,5.76008699,90,-4.74465451392857,-5.00865451392857,-2.70713808130952,0,TRUE,0.06546332,FALSE,0,0,112
"mp-3734","NdSi2Ni",0,8,3,137.351676752945,6.265031629428,17.1689595941182,7,63,4.04599406,104.185167618548,-6.17364401375,-6.17364401375,-0.823913970625,0,TRUE,7.01815393,FALSE,0,0,102
"mp-3735","GdPO4",2.613,24,3,277.634493991893,6.03416987579778,11.5681039163289,1,14,6.31757256464456,90.000066285705,-9.51943316958333,-9.97743316958333,-3.43140323763889,0.0269591612500086,FALSE,2.53032682,TRUE,27.9355422,4,103