"material_id","formula_pretty","band_gap","nsites","nelements","volume","density","density_atomic","crystal_symmetry","symmetry_number","sides_abc","angles_abc","uncorrected_energy_per_atom","energy_per_atom","formation_energy_per_atom","energy_above_hull","is_stable","efermi","is_magnetic","total_magnetization","num_magnetic_sites","atomic_number"
"mp-3054","Li2CO3",5.0574,12,3,114.448689097142,2.1441700570653,9.53739075809518,1,15,4.8292432335117,69.7997518860999,-6.55303679833333,-6.89653679833333,-2.24877390506944,0,TRUE,-0.1416317,FALSE,0,0,25
"mp-3055","NdB2Rh3",0,6,3,80.811119634425,9.75186909996546,13.4685199390708,6,191,5.442592,90,-7.35606383,-7.35606383,-0.652754732638889,0,TRUE,6.2086553,FALSE,0,0,155
"mp-3056","NaTlO2",0.6208,4,3,53.6117923356207,8.03362661371695,13.4029480839052,2,166,5.79187948214029,33.8117171778952,-4.476470425,-4.819970425,-1.42533395934626,0,TRUE,3.1294773,FALSE,1e-07,0,100
"mp-3061","TbNiC2",0,4,3,48.6681864950203,8.24466531488985,12.1670466237551,7,38,3.62166012,106.397435810428,-7.5484415475,-7.5484415475,-0.330483106250001,0,TRUE,6.46874777,FALSE,1.1e-06,0,99
"mp-3062","Sm4S3N2",1.3368,9,3,205.716823426793,5.85740872692692,22.8574248251992,1,12,3.9283796810089,84.3569413818805,-7.19810456777778,-7.44599345666667,-2.11747301326389,0,TRUE,2.68801185,FALSE,0,0,225
"mp-3065","Ho(FeGe)2",0,5,3,82.4203335752002,8.50011075157602,16.4840667150401,4,139,6.08632882476151,142.65521929173,-6.59812316,-6.59812316,-0.44442176,0,TRUE,5.73735913,TRUE,5.2796613,2,125
"mp-3070","Na2CO3",3.8207,12,3,133.313027372674,2.64037125711376,11.1094189477228,1,12,5.26440270087232,101.294613300506,-6.18300142666667,-6.52650142666667,-2.07420439114224,0.0024812996527758,FALSE,1.01625882,FALSE,0,0,33
"mp-3071","Nd3Ni13B2",0,18,3,238.636607248744,8.47094464930531,13.2575892915969,6,191,5.0231226423237,90,-6.07807619666667,-6.07807619666667,-0.366687158935185,0.0063219161111041,FALSE,6.57180567,TRUE,1.4403944,7,125
"mp-3073","Sm2Te4O11",3.2872,34,3,509.81975533811,6.43027402018693,14.994698686415,1,15,6.78496313896444,75.5975715769134,-6.33871612941176,-6.78324554117647,-2.28771779605392,0,TRUE,3.54715369,FALSE,0,0,218
"mp-3074","KAgO",1.4858,12,3,264.065109877441,4.09915938685314,22.0054258231201,4,139,5.44848318953568,82.3689255474526,-3.77234074083333,-4.00134074083333,-1.03812618697222,0,TRUE,0.02597026,FALSE,0,0,74
"mp-3075","TlGeS2",1.7553,32,3,854.475726664236,5.30382188443009,26.7023664582574,7,62,6.67715424,90,-4.206420423125,-4.457920423125,-0.643277739270834,0,TRUE,2.06155939,FALSE,0,0,129
"mp-3076","LaSnPt",0,12,3,283.071688062757,10.6223997250824,23.5893073385631,7,62,4.6419487,90,-6.06092174833333,-6.06092174833333,-1.05535098833333,0.0229801894444454,FALSE,8.57850462,FALSE,2e-07,0,185
"mp-3077","SmAlGe",0,6,3,129.66539138011,6.40269707060402,21.6108985633516,4,109,4.21462608592032,105.501787184107,-5.02701388,-5.02701388,-0.664617273333334,0,TRUE,5.76362689,FALSE,0,0,107
"mp-3078","CdSiAs2",0.4002,8,3,192.107409783646,5.01927973499714,24.0134262229558,4,122,5.91454681435075,115.367031681965,-4.03806948,-4.03806948,-0.12145833,0,TRUE,3.06561178,FALSE,0,0,95
"mp-3079","CaTa4O11",3.5438,32,3,413.597163606835,7.54685589378136,12.9249113627136,6,182,6.22997259892395,89.9999997294686,-9.4480177353125,-9.9203302353125,-3.42968734632812,0,TRUE,1.33249733,FALSE,0,0,239
"mp-3080","Ca5(Ga3O7)2",3.4292,50,3,702.805584085312,3.98223591182981,14.0561116817062,7,36,8.14450822587619,90,-6.2748087292,-6.6595287292,-2.7615200295,0.0007669658000004,FALSE,1.0388648,FALSE,0.0003663,0,190
"mp-3081","BeAl2O4",6.1177,28,3,227.111009408785,3.7134860815135,8.11110747888518,7,62,4.42148734,90,-7.39211947464286,-7.78469090321429,-3.35364527892857,0,TRUE,5.01666759,FALSE,0,0,41
"mp-3082","CaSO4",5.684,18,3,264.329844460697,2.56573507972511,14.6849913589276,6,180,6.97422702,90,-6.530647675,-6.988647675,-2.66718024302083,0.0027616608333334,FALSE,0.20244043,FALSE,7e-07,0,60
"mp-3084","Sc2Ni12P7",0,21,3,246.363766847957,6.81466400065373,11.7316079451408,6,174,8.91820380159841,90,-6.46553139857143,-6.46553139857143,-0.755069688253967,0,TRUE,9.40307131,FALSE,2.5e-06,0,111
"mp-3088","LaBRh3",0,5,3,77.4111589277445,9.83380001858662,15.4822317855489,3,221,4.26187973,90,-7.439526698,-7.439526698,-0.697862200833333,0,TRUE,7.71238095,TRUE,0.6599832,3,152
"mp-3092","DyB2Ru3",0,6,3,78.3534238619123,10.327995695893,13.0589039769854,6,191,5.47251191,90,-8.10479377,-8.10479377,-0.473330769722222,0,TRUE,6.546189,FALSE,7.7e-06,0,159
"mp-3093","ErB2Ru3",0,6,3,77.7908445393111,10.5042737954764,12.9651407565518,6,191,5.45709985,90,-8.10667549333333,-8.10667549333333,-0.481723831388888,0,TRUE,6.51986987,FALSE,4.76e-05,0,161
"mp-3094","SrAl2O4",4.142,28,3,384.006814684223,3.55592383025185,13.7145290958651,1,4,8.81561304,86.5836802709254,-7.20560982892857,-7.5981812575,-3.45998126345238,0,TRUE,1.75401437,FALSE,0,0,75
"mp-3097","Tb(SiRh)2",0,5,3,81.4392133984332,8.58226730008576,16.2878426796866,4,139,4.04373271889654,110.613625340262,-7.16425595,-7.16425595,-1.12153237,0,TRUE,7.11209439,FALSE,3e-07,0,124
"mp-3098","AlCuO2",1.8148,8,3,79.0697860073183,5.14633419935975,9.88372325091478,6,194,2.84277285,90,-6.50884818,-6.85234818,-2.417808199375,8.23724999872155e-05,FALSE,6.09085843,FALSE,0,0,50
"mp-3102","TaCuS3",0.418,20,3,397.938322577725,5.68658169066591,19.8969161288863,7,62,3.51188539,90,-6.4389894585,-6.7407894585,-1.067522678375,0,TRUE,3.89804748,FALSE,0,0,134
"mp-3103","Nb4AlC3",0,16,3,210.760166635391,6.84887770067136,13.1725104147119,6,194,3.16040250387858,90,-9.49861596,-9.49861596,-0.5190169015625,0.0068075204687527,FALSE,6.80349919,FALSE,0.0011126,0,148
"mp-3104","BaZrN2",0.9972,8,3,147.38682252456,5.78118453198617,18.42335281557,4,129,4.18039391,90,-8.029172125,-8.209672125,-1.42475577,0,TRUE,3.14991617,FALSE,0,0,103
"mp-3105","LuBPd3",0,5,3,78.7395038552558,10.6507570921347,15.7479007710512,3,221,4.286119,90,-5.993338464,-5.993338464,-0.645340919833333,0.114905069629629,FALSE,5.03894417,FALSE,0.001127,0,168
"mp-3106","Np(SiRu)2",0,5,3,83.702579702825,9.82625945982586,16.740515940565,4,139,4.17755976064215,111.766213150359,-9.082184284,-9.053784284,-0.58434011975,0,TRUE,9.74424278,TRUE,3.73936,3,58
"mp-3107","Ga3PO7",3.1305,11,3,121.885609454758,4.79744771899749,11.0805099504325,2,160,5.09145712378766,101.981840813865,-6.45876486272727,-6.89594668090909,-2.43009108518939,0.0160458849999987,FALSE,1.63294829,FALSE,0,0,125
"mp-3108","Lu(SiRh)2",0,5,3,79.0147408658685,9.18272814237911,15.8029481731737,4,139,4.00530468523802,110.639190117342,-7.115245566,-7.115245566,-1.095205102,0,TRUE,7.09768129,FALSE,9e-07,0,130
"mp-3109","UGeTe",0,6,3,148.099350862043,9.82803290487239,24.6832251436738,4,139,9.23139521789653,154.266764004489,-6.857984855,-6.99865152166667,-0.646070268888889,0,TRUE,8.84218896,TRUE,4.070327,2,176
"mp-3114","Tb2(MoO4)3",3.5663,68,3,1199.42281726223,4.41729600166945,17.6385708420916,7,32,10.558188,90,-7.55918725779412,-8.60918725779412,-2.65824919514706,0,TRUE,-0.74281819,FALSE,4.27e-05,0,131
"mp-3118","Mg3TeO6",2.8543,20,3,219.834343675798,4.47945262018188,10.9917171837899,2,148,6.03576827792078,90.7142911086423,-5.8998877365,-6.3120877365,-2.54965990541667,0,TRUE,3.53628197,FALSE,0,0,116
"mp-3119","NdTiO3",0,20,3,248.047757563818,6.42952614750988,12.4023878781909,7,62,5.505604,90,-8.65623503,-9.06843503,-3.56769391341667,0.0420024694999963,FALSE,6.86410374,TRUE,3.9991034,4,98
"mp-3120","Tm2Cu2O5",0,36,3,465.287893914133,7.77946813041772,12.924663719837,7,33,3.458938,90,-6.92070103222222,-7.30236769888889,-2.64864239412037,0.0448284802777791,FALSE,3.44650966,TRUE,8.0041439,8,130
"mp-3123","PPdSe",0.9677,24,3,487.587348806626,5.89455612228134,20.3161395336094,7,60,5.84228848,90,-5.07993601708333,-5.23726935041667,-0.540904085642361,0,TRUE,3.43201418,FALSE,0,0,95
"mp-3125","K3Zn2F7",4.0269,12,3,173.017791701694,3.65762556653619,14.4181493084745,4,139,4.05084947558198,100.687977606561,-4.17982976,-4.44932976,-2.84674335720833,0,TRUE,-1.50579257,FALSE,0,0,122
"mp-3128","ErCoSi2",0,8,3,125.846870717015,7.45151808060174,15.7308588396269,7,63,3.91773144,103.782594507593,-6.4107636375,-6.3752636375,-0.74359547125,0,TRUE,6.60023408,FALSE,0,0,109
"mp-3129","ScSi3Ni",0,10,3,151.080572855213,4.13057662901798,15.1080572855213,7,65,10.4819997592766,90,-6.298747665,-6.256147665,-0.57843569,0,TRUE,7.98434497,FALSE,0,0,77
"mp-3136","NaNbO3",1.5249,5,3,64.4491265201727,4.22275652858137,12.8898253040345,3,221,4.009335,90,-7.645665508,-8.057865508,-2.80508621456034,0.0411970939999992,FALSE,1.44863437,FALSE,0.0005892,0,68
"mp-3138","Na8SnSb4",0.2672,26,3,807.17941598685,3.24902938255005,31.0453621533404,3,227,10.4518569767326,59.9903338350349,-2.78020440692308,-2.83928133,-0.446529086724138,0,TRUE,2.20095223,FALSE,0,0,280
"mp-3141","ErInRh",0,9,3,186.118170725704,10.3043965892425,20.6797967473005,6,189,7.42382029,90,-5.64805622333333,-5.64805622333333,-0.753486086666667,0,TRUE,6.0417446,FALSE,1e-06,0,162
"mp-3142","Ca(NO3)2",3.6398,36,3,423.781052864639,2.57183940065843,11.7716959129066,3,205,7.51127816,90,-6.43894409444444,-6.89694409444444,-1.52375276138889,0,TRUE,-0.25897535,FALSE,0,0,43
"mp-3143","Na2SO4",4.9709,14,3,169.636832389535,2.7808408923915,12.1169165992525,7,63,5.21883140128095,90,-5.61047723071429,-6.00304865928571,-2.20758361660406,0.0039281049999999,FALSE,0.71076112,FALSE,0,0,51
"mp-3144","HoNbO4",3.4844,12,3,147.107249464684,7.26569805453623,12.2589374553903,1,15,6.51756692914526,68.7697133684737,-8.862168795,-9.320168795,-3.57509066916667,0,TRUE,2.02556482,FALSE,0,0,132
"mp-3147","Er(SiAu)2",0,5,3,90.5050022713053,11.3270601977853,18.1010004542611,4,139,4.21913327838678,110.96896201136,-4.913112434,-4.884712434,-0.49148866,0.0366720220000011,FALSE,6.94322884,FALSE,2.4e-06,0,161
"mp-3148","Dy(SiPt)2",0,5,3,86.8164760965644,11.6452658553563,17.3632952193129,4,139,5.75777944706351,137.280939926806,-6.546902414,-6.546902414,-1.026964506,0.0589832720000007,FALSE,7.18588782,FALSE,0.000977,0,158
"mp-3151","Li3TaO4",4.2438,32,3,296.322279455452,5.95728332708438,9.26007123298287,1,15,5.98996120463626,71.2218506663306,-7.1796645328125,-7.5231645328125,-2.8517518984375,0,TRUE,1.0551473,FALSE,0,0,103
"mp-3153","Na4Ge9O20",0,66,3,873.226995985784,4.05312305561993,13.2307120603907,4,88,11.417745637232,96.2106147622758,-6.15807612227273,-6.57443975863636,-2.15531472549112,0,TRUE,3.31849176,FALSE,0.0013641,0,297
"mp-3154","Sm3Sb5O12",3.068,40,3,650.984505506795,6.38658423734858,16.2746126376699,3,217,9.45650662695652,109.4712031714,-6.92607573425,-7.33827573425,-2.63022427725,0,TRUE,3.64252576,FALSE,0,0,328
"mp-3155","Sc3FeC4",0,8,3,89.9423635457027,4.40796616039078,11.2427954432128,7,71,3.44298379925395,109.480368739123,-8.48194519375,-8.48194519375,-0.434183881875001,0,TRUE,6.08251693,TRUE,1.909374,1,86
"mp-3158","Li2SbPt",0,4,3,62.5301997728212,8.78269132891935,15.6325499432053,3,216,4.45521083148606,59.9999943339838,-4.18177912,-4.18177912,-0.677284046666666,0,TRUE,6.39937755,FALSE,1e-07,0,132
"mp-3159","Al2CdSe4",2.0047,7,3,182.217414977671,4.39439508980627,26.0310592825244,4,82,5.80480398736325,115.309719677256,-4.01074665,-4.28046093571429,-1.08079131705357,0,TRUE,1.50165954,FALSE,1.1e-06,0,163
"mp-3160","Pr2Si2O7",4.6986,88,3,1123.07855351753,5.32260440006021,12.7622562899719,4,76,6.76066778106801,90,-8.16759271829545,-8.60477453647727,-3.60120466840909,0.0081397235227331,FALSE,2.62027234,FALSE,0.2645783,0,121
"mp-3161","LiAlSi",0,3,3,51.5508543323975,1.99738242696456,17.1836181107992,3,216,4.17750556979235,59.9999958702279,-3.90820707666667,-3.88454041,-0.191268167777778,0,TRUE,4.95244897,FALSE,0,0,30
"mp-3163","BaSnO3",0.3724,5,3,71.136280932979,7.09711444849358,14.2272561865958,3,221,4.14346542,90,-6.329754234,-6.741954234,-2.58823164825,0,TRUE,4.12362011,FALSE,0,0,122
"mp-3164","BaSO4",5.9507,24,3,350.431844531305,4.42371382151631,14.6013268554711,7,62,5.46903188,90,-6.55714870166667,-7.01514870166667,-2.7081187596875,0,TRUE,1.06940886,FALSE,0,0,96
"mp-3165","RbMnSb",0,6,3,197.072613056457,4.41803273218878,32.8454355094095,4,129,4.762887,90,-4.86641508666667,-4.93041508666667,-0.173231551810345,0.170192412772989,FALSE,3.15208876,TRUE,9.2539568,2,113
"mp-3166","Th(SiOs)2",0,5,3,87.1122785770794,12.7462065611592,17.4224557154159,4,139,4.22755599830551,111.695969626054,-8.921473876,-8.921473876,-0.777628042000001,0,TRUE,8.57799335,FALSE,1e-06,0,180
"mp-3167","Hg2GeSe4",0.4336,7,3,190.642070310993,6.87813176384574,27.234581472999,4,82,5.77009073252458,114.225854644386,-2.97924914714286,-3.24896343285714,-0.504101362053571,0,TRUE,1.61949291,FALSE,0,0,214
"mp-3172","Ag3AuSe2",0.0234999999999998,24,3,505.337330567698,8.91809113885892,21.0557221069874,3,214,8.69096012900961,109.471220634491,-3.21389481541667,-3.37122814875,-0.243999321197917,0,TRUE,2.75371285,FALSE,2e-07,0,207
"mp-3173","CaAlSi",0,3,3,67.2003311676865,2.35106063977905,22.4001103892288,6,187,4.18588579,90,-4.11035118333333,-4.08668451666667,-0.361186603333334,0.0042011372222221,FALSE,5.1170057,FALSE,3e-07,0,47
"mp-3175","BaTi4O9",2.7042,28,3,350.987551179767,4.4735808916487,12.5352696849917,7,59,3.79727545,90,-8.64572234357143,-9.08736520071429,-3.51442652872024,0.0090993316071426,FALSE,2.15618378,FALSE,0,0,186
"mp-3177","Nd(CuGe)2",0,5,3,87.0084409824865,7.95099664906928,17.4016881964973,4,139,4.13741014149204,110.655098124277,-4.97927431,-4.97927431,-0.5367510135,0,TRUE,6.43775397,FALSE,0,0,121
"mp-3179","Tb3(CuSi)4",0,11,3,184.692859971997,7.58197149137863,16.7902599974543,7,71,4.1407923216626,114.511123028503,-5.36342795363636,-5.33760977181818,-0.610228217272728,0.0016805500000005,FALSE,6.23632411,FALSE,1e-07,0,201
"mp-3180","Ta2Te2O9",3.0935,52,3,774.576989781402,6.5265056549089,14.89571134195,1,14,7.54363828,77.22765391317,-7.75623167653846,-8.23184706115385,-2.4993574113141,0,TRUE,1.71568269,FALSE,0,0,189
"mp-3182","Th3B2C3",0,8,3,129.291454661987,9.6809311905119,16.1614318327484,1,10,3.73969214645071,90,-8.33049818,-8.33049818,-0.419703833854166,0.0030123221875086,FALSE,7.26089832,FALSE,0,0,197
"mp-3183","DyBRh3",0,5,3,72.6679788320863,11.014830848331,14.5335957664173,3,221,4.17299336,90,-7.471840072,-7.471840072,-0.796019627833334,0,TRUE,5.77188972,TRUE,0.6675759,4,161
"mp-3186","TbB2Ru3",0,6,3,78.6369761136255,10.2152704507505,13.1061626856042,6,191,5.48113243,90,-8.10394087166667,-8.10394087166667,-0.467881328055556,0,TRUE,6.57106817,FALSE,9e-07,0,158
"mp-3187","BaCeO3",2.2207,20,3,344.64733173557,6.27200940462596,17.2323665867785,7,62,6.25973589,90,-7.717598318,-8.129798318,-3.59137227225,0,TRUE,2.8039082,FALSE,0,0,130
"mp-3188","Zn(SbO3)2",0.542199999999999,18,3,203.593093492287,6.60527755853472,11.3107274162382,4,136,4.6784296,90,-5.782887075,-6.240887075,-1.8855672575,0,TRUE,4.61215386,FALSE,0,0,97
"mp-3190","Er(FeB)2",0,5,3,56.6502747742824,8.81037011339634,11.3300549548565,4,139,3.4582141521469,108.926621363734,-7.42435801,-7.42435801,-0.451049055666667,0,TRUE,5.02557848,TRUE,3.2689899,3,99
"mp-3191","Ho(FeSi)2",0,5,3,73.4176247734712,7.52697992601176,14.6835249546942,4,139,3.8695462848128,110.155722540117,-7.154411816,-7.126011816,-0.651394345999999,0,TRUE,6.36568148,TRUE,1.970015,2,107
"mp-3193","Na2Si2O5",4.4712,36,3,463.017420593509,2.61297385550811,12.8615950164864,1,14,4.82951769,75.9428754372188,-6.77042746083333,-7.1520941275,-2.90441299381705,0.0001022861111108,FALSE,0.81822523,FALSE,0,0,57
"mp-3194","Tb2Al3Si2",0,7,3,133.412309729169,5.66281584440477,19.0589013898812,1,12,4.04808142,100.435549074329,-5.03127203285714,-5.01098631857143,-0.531544068571428,0,TRUE,6.49159911,FALSE,0,0,105
"mp-3195","Sr11(CdSb2)6",0.2292,29,3,966.823726624199,5.32329172787765,33.3387491939379,1,12,16.8552895463209,70.290666124505,-3.27132575,-3.35077402586207,-0.810436735287357,0.0195289115698722,FALSE,3.79404564,FALSE,0.0016655,0,99
"mp-3196","NdGaO3",3.4525,20,3,239.712434282393,7.25869943148793,11.9856217141197,7,62,5.471236,90,-7.169544754,-7.581744754,-3.05448283625,0.0335974128333314,FALSE,3.06144001,FALSE,6e-06,0,107
"mp-3197","TbAlPd",0,9,3,178.958937222786,8.13740112012893,19.8843263580873,6,189,7.14004824,90,-5.39299654555556,-5.39299654555556,-0.873055298888889,0.0026298527777779,FALSE,5.28229423,FALSE,1.4e-06,0,124
"mp-3199","CuSe2O5",0,16,3,223.518761033954,4.47918632260487,13.9699225646221,1,15,4.97256989751579,110.207695614106,-5.18316561875,-5.61254061875,-1.13448147105469,0,TRUE,2.03208408,TRUE,2.0000001,2,95
"mp-3200","Lu2Ti2O7",2.508,22,3,253.248116348044,7.31316417497817,11.5112780158202,3,227,7.1015596704838,60,-8.75198295954545,-9.18916477772727,-3.78373695481061,0.0219205625000054,FALSE,3.00286289,FALSE,5.06e-05,0,141
"mp-3201","Li2GaPd",0,4,3,54.8374619288914,5.75416740730699,13.7093654822229,3,216,4.26446109208059,60.0000010484598,-3.553451245,-3.553451245,-0.546995353541667,0,TRUE,3.31257964,FALSE,1.5e-06,0,80
"mp-3202","BaNi9P5",0,30,3,391.913897791366,6.9523776428633,13.0637965930455,6,194,6.46731816129866,89.9999941330265,-6.06797861633333,-6.06797861633333,-0.667530776777778,0,TRUE,8.03265331,FALSE,1e-06,0,340
"mp-3203","NdTaO4",3.9439,12,3,158.930341971248,8.1326322809841,13.2441951642707,1,13,5.24772793572396,90,-9.28968648333333,-9.74768648333333,-3.67890649875,0,TRUE,2.08979816,FALSE,0,0,157
"mp-3204","YbSnPd",0,12,3,260.450581046215,10.1543538508106,21.7042150871846,7,62,4.48550062,90,-4.4490914375,-4.4490914375,-0.872737455833333,0,TRUE,5.4912602,FALSE,0,0,166
"mp-3205","CaCO3",4.2755,10,3,110.769826894637,3.00078481955151,11.0769826894637,7,59,4.343253,90,-7.322572092,-7.734772092,-2.51990579075,0.168865474,FALSE,2.9430585,FALSE,0.0003809,0,42
"mp-3207","Sr(NiGe)2",0,5,3,89.1646129120046,6.5234951054892,17.8329225824009,4,139,4.15522533247643,110.467464794893,-5.009114672,-5.009114672,-0.509950167333333,0,TRUE,5.45012622,FALSE,9e-07,0,98
"mp-3208","ZrGeTe",0,6,3,143.266132678,6.75647969915254,23.8776887796667,4,129,3.76136572,90,-6.22085743,-6.36152409666667,-0.923512637222223,0,TRUE,6.86542356,FALSE,0,0,124
"mp-3210","Ca(CoP)2",0,5,3,70.3902231268728,5.1873555361277,14.0780446253746,4,139,3.84552218434134,110.533083668584,-6.264203378,-6.264203378,-0.854435281333333,0,TRUE,7.14613761,TRUE,1.4342005,2,62
"mp-3211","Nd2SO2",2.8667,5,3,93.1308384641538,6.2859886628124,18.6261676928308,2,164,3.96867446,90,-7.790326694,-8.165726694,-3.452502263125,0,TRUE,3.02315953,FALSE,0,0,84
"mp-3213","LaMnSi2",0,8,3,157.417444171253,5.27462342639618,19.6771805214066,7,63,9.09663651607396,90,-6.8493093875,-6.8138093875,-0.576644773232759,0,TRUE,8.38106022,TRUE,7.1530092,2,96
"mp-3216","Li2ZrN2",1.5619,5,3,50.5748103294202,4.37075221404762,10.114962065884,2,164,3.27830705,90,-6.911168072,-7.055568072,-1.24786082933333,0,TRUE,4.05832841,FALSE,0,0,50
"mp-3217","USeO",0,6,3,107.425352862211,10.2944059804083,17.9042254770352,4,129,3.92653502,90,-8.85726075333333,-9.24359408666667,-2.66559068703125,0,TRUE,8.95172464,TRUE,3.9999998,2,134
"mp-3218","Er(SiPd)2",0,5,3,83.6663080224702,8.65872291617097,16.733261604494,4,139,4.10506368909212,110.909253694339,-6.086930322,-6.086930322,-0.931306624,0,TRUE,6.07152881,FALSE,2e-07,0,128
"mp-3219","EuPO4",0,24,3,286.860623171035,5.71770096562233,11.9525259654598,1,14,6.91908224036402,53.5334180787327,-8.56752872916667,-9.02552872916667,-3.11601887055555,0,TRUE,1.94912994,TRUE,24.0000012,4,102
"mp-3222","La3RuO7",0,22,3,316.917489059311,6.59968603347711,14.4053404117869,7,63,6.72074198185168,90,-8.05501797954545,-8.49219979772727,-3.15499572193182,0,TRUE,6.07632893,TRUE,5.9999998,2,206
"mp-3223","ThB2Ru3",0,6,3,81.2030178357331,11.3875631016631,13.5338363059555,6,191,5.52100688,90,-8.6133306,-8.6133306,-0.514022364722222,0,TRUE,8.15012406,FALSE,6e-07,0,183
"mp-3224","Mn7SiO12",0.2567,80,3,876.875940070521,4.58005954427746,10.9609492508815,4,142,11.6922714948395,131.543017851673,-7.68761621525,-8.68361621525,-2.23763173477586,0,TRUE,3.71644267,TRUE,116.0100924,28,164