"material_id","formula_pretty","band_gap","nsites","nelements","volume","density","density_atomic","crystal_symmetry","symmetry_number","sides_abc","angles_abc","uncorrected_energy_per_atom","energy_per_atom","formation_energy_per_atom","energy_above_hull","is_stable","efermi","is_magnetic","total_magnetization","num_magnetic_sites","atomic_number"
"mp-425","GdB2",0,3,2,37.2607535392864,7.97149589601573,12.4202511797621,6,191,3.30203011772894,90,-9.62219978666667,-9.62219978666667,-0.477231192777777,0.0683296773333328,FALSE,4.82162606,TRUE,7.2331512,1,69
"mp-426","CoSe",0,4,2,58.687792314598,7.80322545064746,14.6719480786495,6,194,3.60742551652186,90,-5.4460295125,-5.6820295125,-0.379914876171875,0.134756360833334,FALSE,6.63525012,FALSE,0.033807,0,61
"mp-427","FeAs",0,8,2,114.066187204878,7.61463333622044,14.2582734006097,7,62,3.39399216,90.0642062390074,-6.7677790725,-6.7677790725,-0.203209265,0,TRUE,6.99688027,TRUE,8.226752,4,59
"mp-428","PrMg3",0,4,2,101.933079609525,3.48327417369385,25.4832699023813,3,225,5.24336529752215,59.9999963610898,-2.5215109525,-2.5215109525,-0.12607447625,0,TRUE,2.93338017,FALSE,1e-07,0,83
"mp-429","ZnNi",0,4,2,46.2752579490023,8.90656876233632,11.5688144872506,4,123,3.18195338,90,-3.77491068,-3.77491068,-0.254970535,0,TRUE,5.10916103,FALSE,6e-07,0,58
"mp-430","TiO2",2.2317,12,2,116.451325118987,4.55538933025465,9.70427709324892,1,14,4.81269978142931,90,-8.9086958675,-9.3666958675,-3.43707272111111,0.0654135291666655,FALSE,3.98940272,FALSE,0,0,30
"mp-432","NbRu",0,2,2,31.9338246805567,10.0866513864143,15.9669123402783,4,123,3.05347284,90,-9.86616162,-9.86616162,-0.17830783,0,TRUE,6.83890547,FALSE,8.1e-06,0,85
"mp-433","DyAl",0,16,2,370.29907459658,6.79756486213334,23.1436921622863,7,57,5.59806028000001,90.0007626597553,-4.591807380625,-4.591807380625,-0.415626045625,0,TRUE,4.64577477,FALSE,0,0,79
"mp-434","SrAu2",0,6,2,148.801359180082,10.7477216968843,24.8002265300137,7,74,4.70266266335659,76.5813196682232,-3.4832781,-3.4832781,-0.737525615555555,0,TRUE,3.41069649,FALSE,0,0,117
"mp-435","ThSn3",0,4,2,106.735775186246,9.15040940726864,26.6839437965614,3,221,4.7435484,90,-5.3095649025,-5.3095649025,-0.44892144875,0,TRUE,8.80088047,FALSE,8.94e-05,0,190
"mp-436","SmRh",0,2,2,42.1869006651508,9.96890623253087,21.0934503325754,3,221,3.48117514,90,-6.769744285,-6.769744285,-0.7282972825,0,TRUE,4.38758268,FALSE,7.3e-06,0,107
"mp-437","MgAu",0,2,2,35.079432750657,10.4742310761994,17.5397163753285,3,221,3.27353901,90,-3.044165975,-3.044165975,-0.60708495,0,TRUE,5.66318416,FALSE,4e-07,0,91
"mp-438","Nd2S3",0.7596,20,2,477.153051704212,5.35488146052222,23.8576525852106,7,62,4.05422156,90,-6.4484540385,-6.7502540385,-2.361125145375,0,TRUE,3.84391457,FALSE,0,0,92
"mp-441","Rb2Te",1.8766,3,2,156.926923563401,3.15898645888248,52.3089745211337,3,225,6.05439557505696,60.0000014828332,-2.69856499,-2.83923165666667,-1.13777364388889,0,TRUE,-0.08341552,FALSE,0,0,89
"mp-442","RhPb",0,6,2,126.28423369225,12.2329355564469,21.0473722820417,6,191,5.7148953,90,-5.61778299,-5.61778299,-0.0793055199999995,0,TRUE,6.86517595,FALSE,4e-07,0,127
"mp-443","CaAu2",0,6,2,134.707723543807,10.7000909974424,22.4512872573011,7,74,4.57999710141363,73.5327997909068,-3.562490525,-3.562490525,-0.711369231666667,0,TRUE,3.8198333,FALSE,0,0,99
"mp-445","NdCo2",0,6,2,97.5814945737717,8.92056886768804,16.2635824289619,3,227,5.16539010059318,90.1212882933056,-6.35872984166667,-6.35872984166667,-0.0304688341666666,0.0321442942261898,FALSE,4.83410593,TRUE,3.846209,6,87
"mp-446","Cr3Pt",0,8,2,104.065025883645,11.2039422351738,13.0081282354556,3,223,4.68556679,90,-8.765876305,-8.765876305,-0.0083073725000009,0.075149490833331,FALSE,7.32550899,TRUE,2.3721162,6,126
"mp-447","TmAu",0,2,2,43.7514316161285,13.8873750088875,21.8757158080643,3,221,3.5236878,90,-4.770081595,-4.770081595,-0.895222883333333,0.0098144974999998,FALSE,4.64367367,FALSE,9.5e-06,0,148
"mp-448","CoN",0,2,2,18.7895547050044,6.44611046205067,9.39477735250218,3,216,2.98407992015017,60.0000105376206,-7.6157891,-7.7962891,-0.0738827400000001,0,TRUE,5.22901013,FALSE,1.83e-05,0,34
"mp-449","Fe5Si3",0,16,2,182.097476417738,6.62914437487035,11.3810922761086,6,193,6.69840037697247,90,-7.71092791625,-7.68430291625,-0.35604539875,0.0339786193750013,FALSE,8.10397613,TRUE,14.8842087,10,132
"mp-450","NbB2",0,3,2,28.040111705987,6.78238557743704,9.34670390199568,6,191,3.11109402,90,-8.51387927333333,-8.51387927333333,-0.69384974611111,0,TRUE,8.44622833,FALSE,3.7e-06,0,46
"mp-451","ZrB",0,2,2,29.6404886592143,5.71627227906242,14.8202443296072,3,225,3.47376247174184,60,-7.987295285,-7.987295285,-0.373749084583333,0.36676943,FALSE,4.83880184,FALSE,0.0008305,0,45
"mp-452","CoAs3",0,16,2,275.500648148155,6.83978940855709,17.2187905092597,3,204,7.09983323077919,109.471216126541,-5.576262721875,-5.576262721875,-0.304844469374999,0,TRUE,5.88720277,FALSE,4e-07,0,93
"mp-454","NaGa4",0,5,2,97.8273165860168,5.12419729864511,19.5654633172034,4,139,4.19325660529534,109.42457752347,-2.82958908,-2.82958908,-0.142607203310344,0,TRUE,2.67948067,FALSE,1.18e-05,0,104
"mp-457","CeBe13",0,28,2,273.982227067248,3.11855363868466,9.78507953811602,3,226,7.28974311885927,59.9777339476123,-4.04745686821429,-4.04745686821429,-0.151352839642858,0,TRUE,5.01386669,TRUE,1.6346188,2,58
"mp-458","Ti2O3",0,10,2,103.721115528621,4.60220528890289,10.3721115528621,2,167,5.45736043561645,55.7941380549335,-9.018213044,-9.430413044,-3.30420301058333,0,TRUE,7.02508314,FALSE,0,0,38
"mp-460","PrZn",0,2,2,50.7721375532122,6.74773357840167,25.3860687766061,3,221,3.70289857,90,-3.32662175,-3.32662175,-0.3062970675,0,TRUE,3.1314177,FALSE,0.0002268,0,89
"mp-463","KF",5.9494,2,2,37.4055186941288,2.57908053870691,18.7027593470644,3,225,3.75390751372735,60.0000049799032,-4.21585948,-4.44685948,-2.93592052275,0,TRUE,-2.78604692,FALSE,0,0,28
"mp-464","HoSe",0,2,2,46.4916353672567,8.71101653289665,23.2458176836283,3,225,4.03611229338103,60.0000058736652,-5.7547422,-5.9907422,-1.95158202617187,0,TRUE,5.70383774,FALSE,2.76e-05,0,101
"mp-466","Nb2F5",0.1513,21,2,280.385758588414,4.98906188727301,13.3517027899245,3,229,7.14155380215914,109.471193058556,-6.92324475380952,-7.25324475380952,-3.00181547988095,0,TRUE,2.44114787,FALSE,1,0,77
"mp-467","Th3N4",1.4415,7,2,119.06127027988,10.4900567409104,17.0087528971257,2,166,9.4232076611169,23.7330963871819,-9.55001104142857,-9.75629675571429,-1.81521754857143,0,TRUE,6.57738921,FALSE,0,0,201
"mp-468","AlF3",7.5792,8,2,85.4341836631185,3.26442332783311,10.6792729578898,2,167,8.77423068585072,135.844115181674,-5.89387293625,-6.24037293625,-3.870369753125,0,TRUE,-1.10108569,FALSE,0,0,31
"mp-470","GeO2",1.2157,6,2,56.0042632782935,6.20512814957392,9.33404387971559,4,136,2.87651434,90,-6.45493099833333,-6.91293099833333,-2.07412923916667,0.0037918238888901,FALSE,5.3453888,FALSE,0,0,40
"mp-471","CdAs2",0.1332,6,2,152.66478634811,5.7050922468385,25.4441310580183,4,98,4.7256347048354,81.5265694704721,-3.49464940833333,-3.49464940833333,-0.0809405516666667,0,TRUE,2.2966027,FALSE,0,0,81
"mp-472","UAl2",0,6,2,111.92227293041,8.66430048612829,18.6537121550683,3,227,5.40933493144373,60.0000580380816,-6.420499735,-6.420499735,-0.159645845,0.0394012708333333,FALSE,9.63055999,TRUE,5.3344664,2,105
"mp-473","Na3P11",1.7597,56,2,1275.91251502967,2.13271923363849,22.7841520541012,7,60,9.80796106,90,-4.77356917696429,-4.77356917696429,-0.236861787415846,0,TRUE,2.80471942,FALSE,0,0,22
"mp-474","ErFe2",0,6,2,95.5756287471253,9.69296709131899,15.9292714578542,3,227,5.13200873835579,60,-7.29012989833333,-7.29012989833333,-0.120876155,0,TRUE,4.47432884,TRUE,7.3756157,6,94
"mp-475","SnP",0,2,2,42.9391375042937,5.78855908346557,21.4695687521469,3,225,3.93057501326311,60.0000046840752,-4.705815495,-4.705815495,0.0056216858333328,0.0428356120833326,FALSE,7.72002002,FALSE,1.1e-06,0,65
"mp-476","Ge3N4",1.9151,14,2,143.549418017591,6.33787820044402,10.2535298583993,3,227,5.8772226636356,60,-6.67781791214286,-6.88410362642857,-0.13909458857143,0.108686486428572,FALSE,5.16592274,FALSE,0,0,85
"mp-477","SmGa2",0,3,2,65.2489947140058,7.37535017733817,21.7496649046686,6,191,4.2099696,90,-4.27625220666667,-4.27625220666667,-0.68465948,0,TRUE,3.42977822,FALSE,9e-07,0,93
"mp-480","ErPt2",0,6,2,110.012938591632,16.8276444957728,18.3354897652721,3,227,5.37839649053542,60.0000056230067,-6.67446395166667,-6.67446395166667,-1.10446880166667,0.0370297373333334,FALSE,6.14440122,FALSE,7.8e-06,0,146
"mp-481","ScPt3",0,4,2,63.2463289856991,16.546175481474,15.8115822464248,3,221,3.98423648,90,-7.1764337375,-7.1764337375,-1.03996647125,0,TRUE,7.19899628,FALSE,1.52e-05,0,177
"mp-484","Te3As2",0.432600000000001,10,2,306.520883446334,5.77105763375297,30.6520883446334,1,12,4.03514784,94.150696013868,-3.764533892,-3.764533892,-0.0149029939999998,0,TRUE,4.8440715,FALSE,0,0,137
"mp-485","ZrNi3",0,8,2,102.468391768165,8.6635314384657,12.8085489710206,6,194,5.26463149,90,-6.93048319125,-6.93048319125,-0.458455523749999,0,TRUE,7.05418019,FALSE,1e-07,0,96
"mp-486","NiP2",0.371300000000001,6,2,87.6855006152113,4.56926095938761,14.6142501025352,1,15,4.25963400564648,68.3707307781153,-5.89627336166667,-5.89627336166667,-0.360692797222222,0.0109029508333335,FALSE,7.28086342,FALSE,0,0,43
"mp-487","MnP4",0.210900000000001,10,2,144.431373194575,4.11211678957525,14.4431373194575,5,2,5.0877826550428,107.23526651192,-6.524205721,-6.524205721,-0.361160657252873,5.47856666672786e-05,FALSE,8.44617615,FALSE,0,0,70
"mp-488","CuSe",0,12,2,244.805811068536,5.79978340853969,20.4004842557113,6,194,4.02084892196586,90,-3.92018747916667,-4.15618747916667,-0.358628405338542,0.0007449874999991,FALSE,4.06416681,FALSE,0.0094602,0,63
"mp-489","Ge4Ir",0,15,2,262.577921403119,9.15922478941246,17.5051947602079,2,152,6.2347277600053,90,-5.6414785,-5.6414785,-0.17536938,0.0054992423333359,FALSE,6.91712331,FALSE,0,0,173
"mp-491","La3Se4",0,14,2,376.223901430757,6.46656702387702,26.8731358164826,3,220,7.87691417486486,109.471217577199,-6.12707147857143,-6.39678576428571,-2.28369044633929,0.0059010841071431,FALSE,7.87700821,FALSE,0.0007584,0,216
"mp-492","TiN",0,2,2,19.0730731709185,5.3868453774794,9.53653658545923,3,225,2.99901540781888,59.9999790816143,-9.832497585,-10.012997585,-1.89700411416667,0,TRUE,8.76602647,FALSE,4e-07,0,29
"mp-493","Co2B",0,6,2,52.2129336525809,8.18470896521105,8.70215560876348,4,140,4.09733566578685,105.732856625182,-7.20970916666667,-7.20970916666667,-0.244366713055555,0.0236850566666664,FALSE,6.8287012,TRUE,4.0339395,4,32
"mp-494","GeMo3",0,8,2,120.551188695764,9.93035271443436,15.0688985869705,3,223,4.93996455,90,-9.43981869,-9.43981869,-0.149824143749999,0,TRUE,8.93381182,FALSE,9e-07,0,116
"mp-495","LuGa3",0,4,2,72.9046060799252,8.74941748108698,18.2261515199813,3,221,4.17751793,90,-3.9012624875,-3.9012624875,-0.499952840625,0,TRUE,3.69450642,FALSE,1.42e-05,0,133
"mp-496","SrSi2",0,12,2,280.164677618774,3.40900323273986,23.3470564682312,3,212,6.54341492,90,-4.54262095916667,-4.49528762583333,-0.315244454722222,0.0030997141666659,FALSE,5.39625507,FALSE,0,0,52
"mp-499","AgO",0,4,2,57.7076591022077,7.12858542820751,14.4269147755519,7,66,3.22316638825266,89.5243453390343,-3.991884885,-4.335384885,-0.445762527708333,0,TRUE,1.43593894,FALSE,2e-07,0,55
"mp-500","TaSe2",0,6,2,140.458168151712,8.01239772041069,23.4096946919521,6,194,3.47662508,90,-7.09351692833333,-7.408183595,-1.12498339989583,0.0081543016666678,FALSE,3.56079047,TRUE,1.7035475,2,107
"mp-501","TaSe2",0,12,2,277.584507131431,8.10857002029283,23.1320422609526,6,194,3.48776937,90,-7.08378008083333,-7.3984467475,-1.11524655239583,0.017891149166668,FALSE,3.82007135,TRUE,1.6971209,2,107
"mp-502","As4S5",1.997,18,2,490.833827510581,3.11252753159069,27.2685459728101,1,11,7.41513521732005,90,-4.49622421222222,-4.77566865666667,-0.40692166173611,0.0028416948611074,FALSE,0.69269026,FALSE,1e-07,0,163
"mp-503","ThS",0,2,2,46.8525160528671,9.36029664327423,23.4262580264335,3,225,4.04652891354855,59.9999996781414,-7.619354105,-7.870854105,-2.0957000465625,0,TRUE,8.61180649,FALSE,2.39e-05,0,106
"mp-504","CuS",0,12,2,200.732054959995,4.74560380687581,16.7276712466662,6,194,3.76786682,90,-4.31093754583333,-4.56243754583333,-0.444609277395834,0.0006278108333335,FALSE,5.49246722,FALSE,1e-07,0,45
"mp-506","MgPd",0,2,2,31.4164152166736,6.90957157219127,15.7082076083368,3,221,3.15538393,90,-4.131929,-4.131929,-0.74184807,0,TRUE,4.9459127,FALSE,4.7e-06,0,58
"mp-507","SiNi2",0,6,2,63.8511404527315,7.56642514277351,10.6418567421219,6,194,3.87261215,90,-6.16410165333333,-6.14043498666667,-0.478571189999999,0.0472212025000002,FALSE,10.19658311,FALSE,0,0,42
"mp-510","TaO2",0.3475,48,2,575.454233232914,9.83171236416008,11.988629859019,4,88,10.2276013053001,94.9748210063102,-9.85095173479167,-10.3089517347917,-3.05856671729167,0.0554819758749989,FALSE,5.2393397,FALSE,0.0042136,0,81
"mp-511","PrGe",0,4,2,103.279875814215,6.8668598332458,25.8199689535537,7,63,4.08475367,112.023294588223,-5.5362568625,-5.5362568625,-0.834290057500001,0,TRUE,4.76720462,FALSE,3.18e-05,0,91
"mp-513","ErGe3",0,8,2,160.686260005551,7.96091435710591,20.0857825006939,7,63,3.87459034,100.880273260455,-5.05169500375,-5.05169500375,-0.44249441,0.0056530733333337,FALSE,3.82350087,FALSE,0,0,132
"mp-514","HfZn2",0,6,2,96.5530772126371,10.6390812688607,16.0921795354395,3,227,5.1494440009086,60.0000045027859,-4.37626102666667,-4.37626102666667,-0.217368943333333,0.0034184612499998,FALSE,3.86200591,TRUE,2.0634539,2,102
"mp-515","TmTl",0,2,2,51.3205321066696,12.0791481333895,25.6602660533348,3,221,3.71618264,90,-3.69746533,-3.69746533,-0.278226045,0,TRUE,5.67885808,FALSE,1.3e-06,0,150
"mp-516","LuSb",0,2,2,56.1518320043561,8.7749011568633,28.0759160021781,3,225,4.29826268369994,60.0000137120061,-5.339283195,-5.435283195,-1.110307315,0,TRUE,5.52663,FALSE,8e-07,0,122
"mp-517","TaSi2",0,9,2,128.42779779501,9.19766212055386,14.2697553105566,6,180,4.76862017000026,90,-8.04687669,-7.99954335666667,-0.430072126666668,5.75444444450568e-06,FALSE,9.28976075,FALSE,1e-07,0,87
"mp-518","Ti5Re24",0,29,2,444.704972193677,17.5809166925279,15.3346542135751,3,217,8.32845949999667,109.471221369101,-11.8828675944828,-11.8828675944828,-0.222656817816093,0,TRUE,7.177884,FALSE,1.1e-06,0,163
"mp-519","USb",0,2,2,59.5638389455225,10.0303061616102,29.7819194727612,3,225,4.38361656608445,60,-7.875702255,-7.971702255,-0.26149663,0.0713010912499996,FALSE,8.51465503,TRUE,2.7021691,1,143
"mp-522","CuAu",0,4,2,58.2119188011501,14.8626366240407,14.5529797002875,4,123,3.58160886,90,-3.73468183,-3.73468183,-0.0481374950000002,0,TRUE,5.52928156,FALSE,0,0,108
"mp-523","CrS",0,4,2,57.0475584257378,4.89369727235838,14.2618896064345,6,194,3.38597579855867,90,-7.3462626775,-7.5977626775,-0.7030140090625,0.125274506666666,FALSE,7.62684263,TRUE,5.7850507,2,40
"mp-524","Ba3As14",1.0907,34,2,993.323178375185,4.88431964592932,29.2153875992702,1,14,6.90955481257599,90,-4.63186753617647,-4.63186753617647,-0.456303860294118,0,TRUE,2.78048467,FALSE,0,0,112
"mp-525","NbSe3",0,24,2,545.072627099969,6.02807560382763,22.7113594624987,1,11,3.52097591,108.973515214863,-5.80649816833333,-6.16049816833333,-1.01323830009115,0.0008183070416674,FALSE,3.86952926,FALSE,3e-07,0,109
"mp-526","CaTl3",0,4,2,112.338923684689,9.65569556628142,28.0847309211722,3,221,4.82514186,90,-2.5201017975,-2.5201017975,-0.2467194675,0,TRUE,5.48435736,FALSE,3.2e-06,0,182
"mp-527","BaCd",0,2,2,76.8726082726064,5.39463555007706,38.4363041363032,3,221,4.2519734,90,-1.74870439,-1.74870439,-0.32777204,0,TRUE,2.03376893,FALSE,3.35e-05,0,104
"mp-528","U2Zn17",0,19,2,296.900249498904,8.88161599474586,15.6263289209949,2,166,6.71648385623471,83.1036255143059,-2.33550066684211,-2.33550066684211,-0.0197921726315788,0.0450323165789474,FALSE,4.55457222,TRUE,5.518194,2,92
"mp-529","SmMg2",0,6,2,159.449717502036,4.14422130383748,26.5749529170059,3,227,6.08666803916352,60.0000000506997,-2.72732407,-2.72732407,-0.0876086583333333,0.0158297183333324,FALSE,3.22207477,FALSE,1e-07,0,74
"mp-530","Nd4Sb3",0,14,2,430.829138466115,7.26338807999996,30.7735098904368,3,220,8.24091982671121,109.471219507219,-5.55615300214286,-5.63843871642857,-1.14421108071429,0,TRUE,5.44846394,FALSE,0.0003325,0,282
"mp-531","K4Si23",0,54,2,1088.11432903694,2.44891477257667,20.1502653525359,3,223,10.28548661,90,-4.79838739833333,-4.73790591685185,0.0481648415925924,0.0569440253703703,FALSE,6.24668184,FALSE,1.8e-06,0,71
"mp-534","B13N2",0,15,2,108.038939919128,2.59068153885043,7.20259599460853,2,166,5.21221967059966,63.5752998554215,-7.10641310666667,-7.15454644,-0.254207581944443,0.13549375927778,FALSE,8.34162047,TRUE,0.9997988,1,7
"mp-535","Fe4N",0,5,2,49.5794253937805,7.95067482348643,9.91588507875609,3,221,3.673673,90,-8.427703552,-8.499903552,-0.056587598999998,0.0699922310000005,FALSE,6.31676301,TRUE,7.2631405,4,85
"mp-536","ThZn4",0,5,2,92.553216844144,8.85722928655721,18.5106433688288,4,139,4.25580821197919,111.027557166964,-2.777712772,-2.777712772,-0.287146234,0,TRUE,4.10674631,FALSE,0,0,180
"mp-537","ErCo2",0,6,2,89.3141105272527,10.6021735239717,14.8856850878754,3,227,5.01735055448062,60.0003512522304,-6.50510747,-6.50510747,-0.243656003333334,0,TRUE,4.51745267,TRUE,4.0870044,6,95
"mp-538","CaAg",0,4,2,107.317847383144,4.57837071550512,26.829461845786,7,63,4.04498483168124,90,-2.756278695,-2.756278695,-0.337200753333333,0,TRUE,2.68005112,FALSE,0,0,67
"mp-539","Ga2S3",1.7106,10,2,219.106108358102,3.57170403988166,21.9106108358102,1,9,6.45523076,116.535028198365,-4.355587149,-4.657387149,-0.964278819875,0,TRUE,2.33866981,FALSE,0,0,63
"mp-540","ScFe2",0,6,2,87.1375468894418,5.97025428841177,14.5229244815736,3,227,4.97630253820417,60,-8.03144676166667,-8.03144676166667,-0.27394292,0,TRUE,5.03813107,TRUE,6.6347678,6,47
"mp-541","Ta3Sb",0,8,2,146.788348586735,15.0366199858493,18.3485435733419,3,223,5.27509795,90,-10.02090040125,-10.06890040125,-0.14331686875,0,TRUE,7.54861845,FALSE,0,0,197
"mp-542","SrHg",0,2,2,62.2402327006636,7.68930229882774,31.1201163503318,3,221,3.96299693,90,-1.5268444,-1.5268444,-0.530257490833334,0,TRUE,2.50683011,FALSE,9e-06,0,118
"mp-544","Ti3Ir",0,8,2,124.979520868488,8.92368452675162,15.622440108561,3,223,4.99972693,90,-8.7075107275,-8.7075107275,-0.57628317,0,TRUE,6.83184719,FALSE,4.4e-06,0,121
"mp-545","TiS",0,4,2,61.2755192088369,4.33224264388867,15.3188798022092,6,194,3.3240780067888,90,-7.212803695,-7.464303695,-1.44833275322917,0.271504135,FALSE,8.47160976,FALSE,0.0153034,0,38
"mp-546","HoRh2",0,6,2,104.272249300671,11.8081359056075,17.3787082167784,3,227,5.28316971194012,60.0000014905721,-7.18911997166667,-7.18911997166667,-0.752111768333333,0,TRUE,5.37229541,FALSE,7.3e-06,0,112
"mp-548","NbCr2",0,6,2,83.1395055744227,7.86528093928554,13.8565842624038,3,227,4.89900078546002,60.0000000669065,-9.83193404,-9.83193404,-0.0294673799999998,0,TRUE,6.178668,FALSE,7e-07,0,65
"mp-549","ScSb",0,2,2,51.1161656230398,5.41586563713354,25.5580828115199,3,225,4.16572993191044,60.0000007059646,-6.165605705,-6.261605705,-1.0308705325,0,TRUE,6.35315894,FALSE,0,0,72
"mp-550","Al12Mo",0,13,2,213.221467873102,3.2687088784686,16.401651374854,3,204,6.51854871193166,109.471213818241,-4.41114895,-4.41114895,-0.11941356,0.0114446876923093,FALSE,7.70537358,FALSE,1e-07,0,42
"mp-551","BaAl2",0,6,2,155.169424337238,4.0941654272452,25.861570722873,3,227,6.03170860086574,59.9999998661248,-3.335556585,-3.335556585,-0.198847718333334,0.0443206065151509,FALSE,4.54979776,FALSE,7e-07,0,69
"mp-552","Th3Sb4",0.0381999999999997,14,2,423.736420498251,9.2730935678879,30.2668871784465,3,220,8.19544590945981,109.47122337686,-6.46523589928571,-6.574950185,-1.03815308357143,0,TRUE,7.57401379,FALSE,0,0,333
"mp-555","Fe8N",0,9,2,100.785167451143,7.5916042537635,11.1983519390159,4,139,5.08580460537695,105.066599087364,-8.48430441777778,-8.52441552888889,-0.0692305727777788,0.0010915550000003,FALSE,5.36052563,TRUE,21.0435155,8,189
"mp-556","ZrNi",0,4,2,66.1357097694557,7.52826877736395,16.5339274423639,7,63,3.26251391824458,90,-7.619652365,-7.619652365,-0.455733710000001,0,TRUE,5.74414007,FALSE,0,0,68