"material_id","formula_pretty","band_gap","nsites","nelements","volume","density","density_atomic","crystal_symmetry","symmetry_number","sides_abc","angles_abc","uncorrected_energy_per_atom","energy_per_atom","formation_energy_per_atom","energy_above_hull","is_stable","efermi","is_magnetic","total_magnetization","num_magnetic_sites","atomic_number"
"mp-6050","AgCSN",2.6922,16,4,326.014578058012,3.38104456637733,20.3759111286257,1,15,6.25237175291689,82.8606675792288,-5.8905588425,-6.1065588425,0.0269827294270834,0.166773905959822,FALSE,0.41928041,FALSE,0.0007309,0,76
"mp-6051","K2Hg(CN)4",5.8512,22,4,552.601727307686,2.30092540639505,25.1182603321675,3,227,9.21104870338063,60,-6.57981482772727,-6.711087555,-0.0942584705454562,0.257039108446971,FALSE,-3.26836209,FALSE,0.0026016,0,126
"mp-6054","Ba5Tm8Zn4O21",3.359,38,4,539.449154399074,8.11334312462941,14.196030378923,4,87,10.1360004973758,94.5373396157202,-6.96640831236842,-7.34606620710526,-3.28498737913377,0.0169198590131518,FALSE,2.50166673,FALSE,0.0001118,0,805
"mp-6055","Sm2SiTeO4",1.8484,32,4,492.414138940573,7.01969833594918,15.3879418418929,7,57,6.23394336,90,-7.6059253396875,-8.0021753396875,-3.27810645989583,1.88820312274629e-06,FALSE,5.67865095,FALSE,0,0,152
"mp-6057","TlSnPS4",1.8272,28,4,744.725407486305,4.3018429143315,26.5973359816537,7,33,6.798439,90,-4.44204795785714,-4.72947652928571,-0.682145532738095,0,TRUE,3.45102048,FALSE,0.0018661,0,194
"mp-6058","K2NaScF6",6.7497,10,4,159.55322206132,2.70731299604332,15.955322206132,3,225,6.08798432504963,60,-5.430795066,-5.707995066,-3.57352845625517,0,TRUE,-2.54700789,FALSE,1.97e-05,0,96
"mp-6059","Cs2KYF6",6.464,10,4,222.65771988521,3.78711695504882,22.265771988521,3,225,6.80326808905382,60,-5.396662412,-5.673862412,-3.59020755105287,0,TRUE,-2.54037573,FALSE,0.0002352,0,158
"mp-6062","YAl3(BO3)4",5.1578,20,4,185.099130927656,3.6340701702483,9.25495654638278,2,155,5.93059768914272,104.280636985031,-8.023791663,-8.435991663,-3.24694015191667,0,TRUE,3.58246638,FALSE,1.91e-05,0,86
"mp-6064","Sr3MgPtO6",2.6841,22,4,307.998364184034,6.23509205528124,13.9999256447288,2,167,6.75828765853252,92.1721556522206,-6.10967467090909,-6.48440194363636,-2.62803594386364,0,TRUE,3.21895893,FALSE,0.0004164,0,206
"mp-6065","Sr2GaSbO6",0.7291,10,4,126.920075391802,6.05391730348232,12.6920075391802,3,225,5.64090050629525,60,-6.228003357,-6.640203357,-2.61858171333333,0.0389875777500039,FALSE,3.91668846,FALSE,0,0,160
"mp-6066","NaTaGeO5",3.3561,16,4,214.33683768577,5.52500579631296,13.3960523553606,1,15,5.7029419283554,74.7216818312989,-7.6197215925,-8.0490965925,-2.73199980066271,0,TRUE,0.90719237,FALSE,4.9e-06,0,148
"mp-6067","Tl2Cd2(SO4)3",3.9583,76,4,1189.56815432251,5.14689542522818,15.6522125568751,3,198,10.595703,90,-5.47143311039474,-5.90532784723684,-1.78213416571272,0.0008056642105263,FALSE,0.84658843,FALSE,4.2e-06,0,169
"mp-6068","Sr2TbRuO6",0.1879,20,4,283.866127323714,6.21512036402513,14.1933063661857,1,14,5.897081,55.1240906763372,-7.134500514,-7.546700514,-2.84991173258333,0,TRUE,3.05258049,TRUE,5.9994161,2,187
"mp-6070","AgCNO",2.3532,8,4,145.482198551231,3.42158560258072,18.1852748189039,7,63,5.88415314309969,90,-5.99724100125,-6.25924100125,0.0768602817708332,0.740739256145833,FALSE,-0.69475694,FALSE,0.001247,0,68
"mp-6071","Sr3LiIrO6",0,22,4,307.261690800354,6.03137155505292,13.9664404909252,2,167,6.75298515121461,92.1913593508264,-6.273780895,-6.64850816772727,-2.51251092462121,0,TRUE,3.15873416,TRUE,3.9992679,2,196
"mp-6072","TmMn6(GaSn2)2",0,13,4,218.407896695262,8.46090459277116,16.8006074380971,6,191,5.35961,90,-6.44331019846154,-6.44331019846154,-0.170817379942528,0.0018269995822342,FALSE,7.1275384,TRUE,13.7652806,7,275
"mp-6073","Mg3Al2(SiO4)3",4.9394,80,4,774.65545349781,3.45654964737681,9.68319316872262,3,230,10.0209791330326,109.471220634491,-7.24287681125,-7.65507681125,-3.2586662895,0.0390730252999933,FALSE,4.59358741,FALSE,2.73e-05,0,75
"mp-6074","KRb2TiF6",0,10,4,188.799847004815,3.27087163394396,18.8799847004815,3,225,6.43930325821435,60,-5.268288998,-5.545488998,-3.30190570663333,0,TRUE,2.89097214,TRUE,1.0000431,1,123
"mp-6075","Ba2Li(BO2)5",4.9474,36,4,436.544547767065,3.77068608157284,12.126237437974,1,11,14.874343,75.7754014056879,-7.57422077916667,-7.95588744583333,-3.03306973953704,0,TRUE,0.98557853,FALSE,0.0010787,0,72
"mp-6076","Ca4LaB3O10",4.3032,18,4,238.758364671301,3.41933506889606,13.26435359285,1,8,9.09432799628648,84.8777398034143,-7.57951360777778,-7.96118027444444,-3.37987643833333,0,TRUE,2.35756203,FALSE,0,0,127
"mp-6077","Ba3SmRu2O9",0,30,4,460.26542160345,6.55517079513569,15.342180720115,6,194,5.99428604022739,90,-7.08734293033333,-7.49954293033333,-2.59657530125,0,TRUE,3.57854126,TRUE,5.9870376,4,282
"mp-6078","Na2Cd3Si3O10",2.4533,36,4,484.722424130276,4.29906617275206,13.4645117813965,1,15,8.79468504087986,85.8009807627402,-6.06357353111111,-6.44524019777778,-2.49209791614464,0,TRUE,1.27147053,FALSE,0.0010621,0,135
"mp-6080","BaNd2CoS5",0,18,4,419.151093849306,5.11110487209092,23.286171880517,4,140,8.75493612645152,126.525914388825,-6.01773076777778,-6.29717521222222,-1.93652666395833,0.0714420561574025,FALSE,4.24388882,TRUE,6.0009736,2,207
"mp-6081","Ba2Ti(SiO4)2",3.7274,26,4,396.62987714809,4.24261478331358,15.2549952749265,4,100,8.629826,90,-7.80299304615385,-8.22576227692308,-3.44440938102564,0,TRUE,1.45338154,FALSE,0.0009947,0,116
"mp-6084","La3Co29(Si2B5)2",0,92,4,987.642463071396,7.88951161655629,10.7352441638195,4,129,11.205842,90,-7.12173521206522,-7.11556129902174,-0.38850853384058,0,TRUE,7.33257936,TRUE,37.6812275,58,175
"mp-6088","LaCuSO",1.6685,8,4,135.842412643384,6.12461720670929,16.980301580423,4,129,3.989429,90,-6.5877715025,-6.8852715025,-2.35568341421875,0,TRUE,7.42975286,FALSE,1.83e-05,0,110
"mp-6089","BaZn2(PO4)2",4.0373,52,4,800.706956924528,3.80000475856276,15.3982107100871,1,14,9.907292,88.5080719370255,-6.52589559961539,-6.94866483038462,-2.73031276397436,0,TRUE,0.29590031,FALSE,0.0068701,0,125
"mp-6090","Na2Cu(CO3)2",0.6501,22,4,267.356473423598,2.85136676345033,12.1525669737999,1,14,8.149978,64.4922464069479,-6.43891714227273,-6.813644415,-1.82439709596395,0,TRUE,1.61370564,TRUE,2.0114505,2,62
"mp-6091","BaAl2(SiO4)2",4.7196,52,4,747.10160007111,3.33801890415685,14.367338462906,1,14,8.5811129169044,90,-7.63495061153846,-8.05771984230769,-3.45508350769231,0,TRUE,1.06453997,FALSE,7e-07,0,107
"mp-6092","TbNi2B2C",0,6,4,65.4949740949675,7.85824468256448,10.9158290158279,4,139,5.73339970900224,143.757420547495,-6.97559203666667,-6.97559203666667,-0.511910620972221,0,TRUE,6.53355507,FALSE,0.0029604,0,104
"mp-6094","Ca2MgSi2O7",4.5952,24,4,315.989941984521,2.86533874906302,13.1662475826884,4,113,7.907896,90,-7.23455533541667,-7.63530533541667,-3.37789393135417,0.0225843371527796,FALSE,1.82532997,FALSE,0.0001024,0,94
"mp-6095","Mg2PO4F",5.1652,128,4,1430.46973980519,3.0196520098638,11.175544842228,1,14,12.810137,71.7705582332801,-6.60979665140625,-7.01104665140625,-3.22203459901042,0,TRUE,1.54293727,FALSE,0.000171,0,60
"mp-6096","TlHg(AsS2)3",1.6232,44,4,1242.5671980923,4.39469456427168,28.2401635930068,1,14,12.297304,70.3093805123428,-3.94374927363636,-4.21811291,-0.44880582564394,0.0032015822727258,FALSE,1.93733805,FALSE,0.0002363,0,210
"mp-6097","Li3Al(BO3)2",4.7684,24,4,240.073284270045,2.28839500315319,10.0030535112519,5,2,4.919069,73.4773004281234,-6.88144638166667,-7.22494638166667,-2.84900802840278,0.005996573125004,FALSE,0.86400287,FALSE,0.0021725,0,40
"mp-6098","ErNi2B2C",0,6,4,64.3586097358115,8.21201522963855,10.7264349559686,4,139,5.77805084608651,144.611959253275,-6.97387463666667,-6.97387463666667,-0.521301102638889,0,TRUE,6.50322201,FALSE,0.0020747,0,107
"mp-6099","LiSc(SiO3)2",4.7838,40,4,455.389589155121,2.97641202385437,11.384739728878,1,14,9.062025,78.4587127485512,-7.80658442875,-8.21878442875,-3.34156839883333,0.0011462652499982,FALSE,1.86949592,FALSE,0.0040133,0,54
"mp-6101","Ba3Nb6(Si2O13)2",2.1421,39,4,573.14760620246,4.33931012981121,14.6960924667297,6,189,9.18141197002574,90,-8.3422212751282,-8.80022127512821,-3.2443255399359,0,TRUE,0.98474044,FALSE,0.0047313,0,331
"mp-6102","NdNi2B2C",0,6,4,68.2938170261523,7.1791748794062,11.382302837692,4,139,5.6430467841098,141.777003326615,-6.938499585,-6.938499585,-0.452521280555556,0,TRUE,6.41707374,FALSE,0.0063847,0,99
"mp-6105","Pr2Ta3(SeO4)2",0.9477,60,4,923.470355277844,7.98791963504166,15.3911725879641,7,58,7.682805,90,-8.84270202383333,-9.27203535716667,-3.1586702208125,0,TRUE,4.79877695,FALSE,0.0056929,0,263
"mp-6109","CaTiSiO5",2.9855,32,4,381.109020653291,3.41646410069166,11.9096568954153,1,14,8.772745,65.8718350056683,-8.055103519375,-8.484478519375,-3.47699683401042,0,TRUE,2.51225827,FALSE,1.57e-05,0,88
"mp-6110","Sr2YSbO6",3.5122,10,4,148.141498838086,5.40171065288095,14.8141498838086,3,225,5.93923592834567,60,-7.002285517,-7.414485517,-3.04902636425,0.0518521860000005,FALSE,3.06107098,FALSE,4e-06,0,168
"mp-6112","K6Na3GaSb4",0.6974,28,4,972.547159851896,2.93784924557392,34.7338271375677,6,194,10.2922361405172,90,-2.59572508857143,-2.65058223142857,-0.49529147822537,0,TRUE,1.72406094,FALSE,0.0017219,0,301
"mp-6113","LiTiAsO5",3.1654,32,4,386.887822130399,3.60062212025699,12.090244441575,7,62,6.662829,90,-7.0316332434375,-7.4610082434375,-2.56138613786458,0,TRUE,0.9299059,FALSE,0.0021369,0,90
"mp-6114","La3Ni2B2N3",0,10,4,141.430092491197,7.01816297824814,14.1430092491197,4,139,10.3158157896839,158.958650969066,-7.5091478,-7.6174478,-1.14379150083333,0.0047359103333448,FALSE,8.85545947,FALSE,0.001032,0,161
"mp-6115","K2Zn2(SO4)3",5.1465,76,4,1026.47486251824,3.21731798548591,13.5062481910295,3,198,10.087482,90,-5.61935907868421,-6.05325381552632,-2.02641701291447,0.0112149684210578,FALSE,0.48695758,FALSE,0,0,89
"mp-6118","Ca3Cu3(PO4)4",0.6475,52,4,661.113458932238,3.46999357659873,12.7137203640815,1,14,4.967324,62.2249861218187,-6.78068036307692,-7.20344959384615,-2.62211693782051,0,TRUE,2.4317422,TRUE,1.8691062,6,137
"mp-6119","Na2Nd2Ti3O10",2.0423,17,4,213.342320010604,4.96629609167052,12.5495482359179,4,139,14.6411520892457,164.885967180004,-7.97793587294118,-8.38205352,-3.36236477797667,0.031896253676475,FALSE,2.7941339,FALSE,0.0026112,0,115
"mp-6120","Sr4Al6MoO16",3.5625,216,4,3469.56348283417,3.30924235425125,16.06279390201,4,142,16.5184200199338,109.768697783377,-7.18527477236111,-7.71097847606481,-3.29527113223765,0,TRUE,1.25921954,FALSE,0,0,221
"mp-6121","BaY2ZnO5",3.0989,36,4,515.865588560052,5.92985834469206,14.3295996822237,7,62,5.771599,90,-7.3931806425,-7.77484730916667,-3.23650238328704,0.0215707281018469,FALSE,2.81083122,FALSE,7.4e-05,0,157
"mp-6122","Ba2NdSbO6",3.7321,10,4,162.756544767237,6.4955064237605,16.2756544767237,2,148,6.11480624642482,60.2966155960827,-6.843521778,-7.255721778,-3.014198696,0,TRUE,2.80982799,FALSE,4.27e-05,0,207
"mp-6123","Ba2Pd(OF)2",0,7,4,126.801335236014,5.90702536206692,18.1144764622877,4,139,7.70863682353819,148.196817783083,-5.74338524857143,-6.07167096285714,-2.82393281321429,0.0518029224999985,FALSE,1.52567126,FALSE,0.2039041,0,119
"mp-6124","NaAl(SiO3)2",5.2254,20,4,208.864637686181,3.2141316502903,10.443231884309,1,15,6.45333038543859,76.9228664480954,-7.3088635385,-7.7210635385,-3.16117659340517,0.0309913575624927,FALSE,3.36939174,FALSE,0.0003279,0,54
"mp-6125","RbTi2(PO4)3",2.6058,36,4,489.361453143884,3.1633208267358,13.5933736984412,2,167,9.31094390031483,53.8955601324778,-7.70013568222222,-8.15813568222222,-3.02637511773148,0,TRUE,0.83831003,FALSE,0.000361,0,98
"mp-6126","LiCdBO3",2.5731,18,4,204.265834996903,4.34497965981666,11.3481019442724,6,174,8.43390613065725,90,-6.02586833,-6.36936833,-2.31082324145833,0,TRUE,0.79210475,FALSE,0.0005182,0,72
"mp-6127","BaCu(Si2O5)2",0.8549,64,4,936.583200351418,3.35595185082066,14.6341125054909,4,130,7.521838,90,-7.40781443796875,-7.83718943796875,-3.0130431353125,0.0111560646875021,FALSE,2.5510505,TRUE,4.1083041,4,131
"mp-6130","KMn4(PO4)3",3.0707,80,4,1106.94488592954,3.26282660086572,13.8368110741193,7,62,6.644762,90,-7.489391842125,-8.235191842125,-2.56726023361121,0,TRUE,2.12048105,TRUE,79.9990233,16,133
"mp-6131","Ba3Yb(BO3)3",0,96,4,1424.52683466946,5.32562160319542,14.8388211944735,6,185,9.52605917036951,90,-7.23649837760417,-7.62293587760417,-3.13200420174479,0,TRUE,0.89100885,FALSE,5.7961864,0,203
"mp-6134","LiCaAlF6",7.6316,18,4,218.165529297652,2.86173833785218,12.1203071832029,2,163,5.08317862357452,90,-5.68931567,-5.99731567,-3.87187429425926,0,TRUE,-1.65215562,FALSE,6.35e-05,0,81
"mp-6135","Ba2PrIrO6",0,10,4,156.726227288339,7.45660751772793,15.6726227288339,3,225,6.05181338622919,60.0000018090182,-6.975808605,-7.388008605,-2.67426639675,0,TRUE,3.56606194,TRUE,2.0104893,1,232
"mp-6137","Mg4P6SN12",4.8305,23,4,290.463132591754,2.76243565797492,12.6288318518154,3,217,7.22610557687251,109.471220634491,-7.06484172869565,-7.27505912,-1.05526241535326,0,TRUE,3.76554225,FALSE,0.0006525,0,127
"mp-6138","Na2TiSiO5",2.9703,18,4,211.276535160802,3.17414384853154,11.7375852867112,4,129,5.07721277,90,-7.14114605055556,-7.52281271722222,-3.00066780724298,0,TRUE,2.02052296,FALSE,1e-07,0,79
"mp-6140","PrNi2B2C",0,6,4,69.1117154757435,7.01409932945936,11.5186192459572,4,139,5.63293197434995,141.376506719513,-6.920831385,-6.920831385,-0.432726693472221,0,TRUE,6.44016682,FALSE,0.0044921,0,98
"mp-6144","Na2La2Ti3O10",2.0914,17,4,216.406877428372,4.8140711115396,12.729816319316,4,139,14.6964133396032,164.863035285124,-8.05107936705882,-8.45519701411765,-3.41576007532961,0.0125048040441235,FALSE,4.0437312,FALSE,0.0027594,0,112
"mp-6145","Ba2LuRuO6",0.0556,10,4,145.851840587207,7.3626063768178,14.5851840587207,3,225,5.90847819757761,60,-7.207708672,-7.619908672,-2.88856515125,0,TRUE,3.15688185,TRUE,2.9999962,1,211
"mp-6146","LiNbZnO4",2.9034,28,4,323.978558875697,4.70012819718227,11.5706628169892,4,91,6.171867,90,-6.91027622607143,-7.30284765464286,-2.58045817440476,0.0030383482142823,FALSE,0.76065739,FALSE,0.0005882,0,98
"mp-6150","Na4Zr2(SiO4)3",4.27,42,4,561.899617110731,3.25462555458545,13.3785623121603,2,167,9.19988064155362,60.9110378450504,-7.39652606642857,-7.789097495,-3.12139649220033,0,TRUE,1.31598713,FALSE,0.0034428,0,111
"mp-6152","La2ZnIrO6",0,20,4,259.446698861776,8.08273709878526,12.9723349430888,1,14,5.822854,55.0196392816666,-7.2073671645,-7.6195671645,-2.65453473775,0.0296128963750046,FALSE,6.71186003,TRUE,2.0001825,2,204
"mp-6153","Na3Li3V2F12",0,80,4,1006.25182693331,2.77010349385037,12.5781478366664,3,230,10.9339275252449,109.471220634491,-5.27746273925,-5.72466273925,-3.18466752773276,0,TRUE,0.82150361,TRUE,16.0000215,8,51
"mp-6160","Rb2PO3F",4.3183,28,4,537.903160449217,3.32051486801804,19.2108271589006,7,62,6.235893,90,-5.84442954107143,-6.2048581125,-2.75829871922619,0,TRUE,-0.19408803,FALSE,0.0003511,0,77
"mp-6163","Cs2NaGaF6",5.9704,20,4,358.438212873354,4.37803828704619,17.9219106436677,2,166,10.9130200309789,33.8021979738704,-4.5459418985,-4.8231418985,-3.06211191199138,0,TRUE,-1.8819714,FALSE,0.0005744,0,142
"mp-6164","Sr4MoN4O",2.2746,80,4,1420.41461460652,4.84872605605398,17.7551826825816,1,11,14.903378,77.8366010922414,-6.344160471625,-6.877460471625,-1.28783123816667,0.208587145708334,FALSE,2.84343155,FALSE,5.19e-05,0,185
"mp-6166","PrCuSO",1.6416,8,4,133.812026918061,6.26724064651407,16.7265033647576,4,129,3.968821,90,-6.4383191925,-6.7358191925,-2.24500644171875,0.0079939728906293,FALSE,5.25977428,FALSE,0.0083402,0,112
"mp-6167","Ba2NdNbO6",2.9873,10,4,163.76848158667,6.16280745259085,16.376848158667,1,12,6.11789268567699,60.0438825461382,-7.801677411,-8.213877411,-3.375123949,0,TRUE,1.93502928,FALSE,8.1e-05,0,197
"mp-6168","K3Nb2CuSe12",1.1323,72,4,2101.80637331319,4.15306896093712,29.1917551849054,1,14,13.907567,61.6473690130488,-4.57237842013889,-4.88704508680556,-1.0212700133125,0,TRUE,1.6814287,FALSE,0.0004015,0,108
"mp-6169","Ba3Ta6(Si2O13)2",2.8589,39,4,565.928712919804,5.94464150353245,14.5109926389693,6,189,9.13278764027238,90,-8.80179047769231,-9.25979047769231,-3.43366819019231,0,TRUE,1.22685458,FALSE,0.0068091,0,491
"mp-6172","Al2Fe3(SiO4)3",3.6413,80,4,793.847827870528,4.16467204983315,9.9230978483816,3,230,10.1030627528541,109.471220634491,-7.46201511575,-8.21261511575,-2.78574342,0.0244395584999974,FALSE,4.78751751,TRUE,47.9997599,12,103
"mp-6174","Mg2Al4Si5O18",4.8175,58,4,801.188293477155,2.42474103717812,13.8135912668475,7,66,9.9346453031528,90,-7.54016548827586,-7.96657928137931,-3.33382582025862,0,TRUE,0.96262439,FALSE,0.0038276,0,107
"mp-6175","BaLi2P2O7",5.3618,48,4,624.344736471741,3.4591667395099,13.0071820098279,1,15,7.1539795117164,89.6649766208865,-6.82747274208333,-7.22822274208333,-2.96236885329861,0.0020688400000059,FALSE,1.09317029,FALSE,0.0028748,0,122
"mp-6178","Cs2KTiF6",0,10,4,197.969825680619,3.9151633831657,19.7969825680619,3,225,6.54191152323233,60,-5.264196975,-5.541396975,-3.31484002371954,0,TRUE,3.40982283,TRUE,1.0001204,1,141
"mp-6179","KLiSO4",5.3221,14,4,207.598232170947,2.27329254127541,14.8284451550676,6,173,5.21371866149776,90,-5.76271373642857,-6.155285165,-2.30635280420833,0.0001938871428679,FALSE,-0.39325344,FALSE,0.000301,0,62
"mp-6181","NaNb(CuS2)2",1.7198,16,4,397.413520688711,3.10242114668899,24.8383450430444,7,40,9.67046717733637,90,-5.269423866875,-5.520923866875,-0.999918474256466,0.015425667968751,FALSE,1.88007495,FALSE,0.0024547,0,97
"mp-6182","CsTb2Cu3Se5",1.1974,22,4,534.26561924705,6.44114390979279,24.2848008748659,7,63,7.6398721081454,90,-4.74389334863636,-4.95843880318182,-1.32741044224089,0,TRUE,3.64422836,FALSE,0.0003404,0,314
"mp-6183","Ba2PrRuO6",0.1636,20,4,310.716047510912,6.54805452418258,15.5358023755456,1,12,6.05868076475267,89.9939189852093,-7.088749873,-7.500949873,-2.74361082875,0,TRUE,3.08418499,TRUE,6.0035408,1,199
"mp-6185","ErCo(CN)6",4.2943,28,4,617.053627788452,2.05757944670344,22.0376295638733,6,194,7.40329118278891,90,-8.45549759892857,-8.61021188464286,-0.248283376785713,0.0418364814285698,FALSE,-3.29257453,FALSE,0.0018841,0,136
"mp-6186","Al2Co3(SiO4)3",2.945,80,4,774.049877788961,4.35069209168541,9.67562347236201,3,230,10.0183672004148,109.471220634491,-7.256328779,-7.914228779,-2.6916125955,0.0480725111249995,FALSE,4.95401193,TRUE,35.9994827,12,105
"mp-6188","LuNiBC",0,8,4,92.3496741371708,9.22360692471969,11.5437092671464,4,129,3.499459,90,-7.11823066,-7.11823066,-0.565944544166666,0,TRUE,5.43717201,FALSE,0.0008694,0,110
"mp-6189","CaCu(Si2O5)2",1.0521,64,4,839.861926025441,2.97332810612503,13.1228425941475,4,130,7.376571,90,-7.407828851875,-7.837203851875,-3.00764349046875,0.0263026067708382,FALSE,3.17076579,TRUE,4.1957988,4,95
"mp-6191","CeB2Rh2C",0,6,4,76.0814369539009,8.2841982905616,12.6802394923168,4,139,5.78775436997468,141.03016219405,-7.823437345,-7.823437345,-0.615245023472222,0,TRUE,7.51287101,FALSE,0.0116138,0,114
"mp-6192","Ba2DySbO6",3.4688,10,4,154.813519928454,7.0246080886554,15.4813519928454,3,225,6.02709394590809,60,-6.907368041,-7.319568041,-3.09418101825,0,TRUE,3.01461528,FALSE,2.27e-05,0,213
"mp-6194","K4UC3O11",2.0892,38,4,607.989428139522,3.3126561142116,15.9997217931453,1,15,7.02041558963435,86.6278686011916,-7.21981095342105,-7.61754779552631,-2.46846473767105,0,TRUE,-0.16538717,FALSE,0.0319566,0,161
"mp-6198","SrGa2(SiO4)2",3.8803,52,4,729.232717076946,3.74567469370309,14.0237060976336,1,15,8.50534085470083,89.7286224295679,-7.0246548925,-7.44742412326923,-2.97282171955128,0.0157297328846155,FALSE,0.60228989,FALSE,8e-07,0,107
"mp-6200","Ba2NdRuO6",0.1501,10,4,158.384067237913,6.45790732991012,15.8384067237913,1,12,6.06019216307709,59.9800731094184,-7.106324293,-7.518524293,-2.762461081,0,TRUE,3.04547693,TRUE,3.0009811,1,200
"mp-6203","CaCuAs2O7",0.1424,44,4,593.530173441398,4.08987186196864,13.4893221236681,1,14,9.061988,70.7473525150026,-6.059878475,-6.49706029318182,-1.94707262602273,0.0496352350000011,FALSE,2.53346242,TRUE,4.0035022,4,130
"mp-6204","Cs2NaScF6",6.8066,10,4,181.818772561379,4.0892443727672,18.1818772561379,3,225,6.35893774410538,60,-5.380892836,-5.658092836,-3.56662554124138,0,TRUE,-1.87076022,FALSE,0,0,132