"material_id","formula_pretty","band_gap","nsites","nelements","volume","density","density_atomic","crystal_symmetry","symmetry_number","sides_abc","angles_abc","uncorrected_energy_per_atom","energy_per_atom","formation_energy_per_atom","energy_above_hull","is_stable","efermi","is_magnetic","total_magnetization","num_magnetic_sites","atomic_number"
"mp-2748","CeAs",0,2,2,56.3569686962697,6.33601032575656,28.1784843481349,3,225,4.30349028952975,60.0000152039072,-6.72533053,-6.72533053,-1.42922675,0,TRUE,6.35174748,TRUE,0.9680917,1,91
"mp-2749","TiBe2",0,6,2,66.7015719931689,3.28073779384889,11.1169286655281,3,227,4.55209749850546,60.0022430515439,-5.31855525833333,-5.31855525833333,-0.193782676111111,0,TRUE,4.72771321,TRUE,2.4710068,2,26
"mp-2750","Cr2Te3",0,20,2,514.870326358404,6.279930491496,25.7435163179202,2,163,6.895947528927,89.9982778512311,-5.9595037545,-6.2127037545,-0.465501230499998,0,TRUE,6.0179574,TRUE,24.2301785,20,128
"mp-2751","YbSn3",0,4,2,102.66945059339,8.55860679875198,25.6673626483476,3,221,4.68252832,90,-3.8511824125,-3.8511824125,-0.45910145125,0,TRUE,7.04122309,FALSE,5.9e-06,0,170
"mp-2752","Nb3Au",0,8,2,143.961423866768,10.9736995092358,17.995177983346,3,223,5.24101402,90,-8.4601635475,-8.4601635475,-0.0657142675000006,0.0264656524999988,FALSE,5.48062093,FALSE,0.0142843,0,161
"mp-2753","Tl4S3",0.8279,28,2,812.856718451985,7.46641486949202,29.0305970875709,1,14,7.94340003529275,90,-3.40706144428571,-3.62263287285714,-0.499786846101191,0.0091230741269838,FALSE,3.40821661,FALSE,0,0,275
"mp-2754","Hf2Fe",0,24,2,436.676886826651,12.5587052733803,18.1948702844438,3,227,8.51577526447753,60.0002407011282,-9.64394735875,-9.64394735875,-0.182480935416665,0,TRUE,5.14126727,TRUE,7.4199977,24,98
"mp-2755","SiTe2",0,3,2,88.5487753130022,5.31240142044337,29.5162584376674,2,164,3.80047021,90,-3.86033799333333,-4.14167132666667,-0.23769472111111,0,TRUE,5.50068173,FALSE,0,0,66
"mp-2756","CeAg",0,2,2,52.0250326178792,7.91517912202193,26.0125163089396,3,221,3.73311,90,-4.43524116,-4.43524116,-0.0524185808333337,0.0863521399999998,FALSE,6.00534823,TRUE,0.9868606,1,105
"mp-2757","CdAu",0,2,2,37.965487162902,13.5315935088601,18.982743581451,3,221,3.36095728,90,-2.269598485,-2.269598485,-0.171212605,0.0039304475000001,FALSE,4.85659978,FALSE,1e-07,0,127
"mp-2758","SrSe",2.2313,2,2,61.9011855864723,4.46861550539798,30.9505927932361,3,225,4.44022001799534,60.0000111365688,-4.655021475,-4.891021475,-2.29831900950521,0,TRUE,1.61825875,FALSE,0,0,72
"mp-2759","Ho6Fe23",0,29,2,435.612490106829,8.66847030222518,15.0211203485114,3,225,8.50885812711273,60.0008109922289,-7.72498834586207,-7.72498834586207,-0.059300723448276,0.0104447275862069,FALSE,4.40996878,TRUE,54.1694408,29,361
"mp-2760","Nb6C5",0,11,2,136.612715049013,7.50566463470476,12.4193377317284,1,12,5.52103519311321,80.2928411224834,-10.2492476990909,-10.2492476990909,-0.544596998863637,0,TRUE,6.95372752,FALSE,1e-07,0,229
"mp-2762","YIr2",0,6,2,107.568769748101,14.6138942472652,17.9281282913502,3,227,5.33826711118406,60.000007892667,-8.86268327,-8.86268327,-0.814903445555556,0,TRUE,6.98350531,FALSE,0,0,116
"mp-2763","Nd2O3",3.8089,5,2,77.1681562687734,7.24057519748743,15.4336312537547,2,164,3.84716219,90,-8.21563696,-8.62783696,-3.75256476025,0.0297459574999976,FALSE,2.28688961,FALSE,0,0,76
"mp-2764","LaNi3",0,12,2,179.722101148536,8.73091301144802,14.976841762378,2,166,8.77852574269123,33.1154855626072,-5.89277063083333,-5.89277063083333,-0.323666344583332,0.0017624329166672,FALSE,9.02867082,FALSE,0.007324,0,113
"mp-2765","PuB",0,2,2,34.3687151157827,12.3113016786917,17.1843575578914,3,225,3.64943890888695,60,-9.97161169,-9.97161169,0.502003360416667,0.817798039687499,FALSE,9.75904584,TRUE,5.0944544,1,5
"mp-2767","TiGa",0,4,2,61.802587864795,6.31891950119205,15.4506469661988,4,123,3.95408567,90,-5.933429735,-5.933429735,-0.471635715416666,0,TRUE,5.51371309,FALSE,9e-07,0,53
"mp-2768","Ba2As",0,6,2,235.490455785175,4.92999971990099,39.2484092975292,4,139,9.72430265487238,149.552226055311,-3.66842320166667,-3.66842320166667,-0.836067106666667,0.0694744041025647,FALSE,3.13246303,FALSE,0.0009133,0,89
"mp-2769","HoMn2",0,6,2,93.3291860149872,9.77886551981324,15.5548643358312,3,227,5.09148136574043,60,-7.51890624,-7.51890624,0.116573578045977,0.123440302222222,FALSE,4.87268695,TRUE,2.5638853,6,92
"mp-2772","ZrAl2",0,12,2,210.632163525271,4.57838555367913,17.5526802937726,6,194,5.2756340600001,90,-5.88410669166667,-5.88410669166667,-0.537822594999999,0,TRUE,6.79490826,FALSE,6e-07,0,53
"mp-2773","BeCo",0,2,2,17.0093580183267,6.63316938721621,8.50467900916333,3,221,2.57175331,90,-5.72974061,-5.72974061,-0.30587528,0,TRUE,5.47128458,TRUE,0.3810625,1,31
"mp-2775","SrAl4",0,5,2,110.705423721455,2.93311761781067,22.141084744291,4,139,4.44421578537586,110.230976785085,-3.566666578,-3.566666578,-0.232307223333333,0,TRUE,5.32190309,FALSE,1e-07,0,77
"mp-2776","Ga2Au",0,3,2,56.9587046435053,9.80756526708451,18.9862348811684,3,225,4.31875306640698,59.9999905344272,-3.34813968666667,-3.34813968666667,-0.238115005,0,TRUE,4.07308007,FALSE,6e-07,0,110
"mp-2778","HoAg",0,2,2,46.315084376684,9.78067093835864,23.157542188342,3,221,3.59121015,90,-4.04802069,-4.04802069,-0.340538253333333,0,TRUE,3.73212666,FALSE,1.2e-06,0,114
"mp-2779","FeS",0,24,2,343.850330865834,5.09447196902996,14.3270971194098,6,190,5.8972398865287,89.9699165770326,-6.51011892208333,-6.76161892208333,-0.458383383645833,0.299531570416663,FALSE,6.47644962,TRUE,26.329077,12,42
"mp-2780","Fe3Se4",0,7,2,114.623787057519,7.0025872632789,16.3748267225027,1,12,6.34339947190093,64.5156341019458,-5.85574786142857,-6.12546214714286,-0.497789355624999,0.079471490714285,FALSE,5.8054455,TRUE,4.2447108,3,154
"mp-2781","ScPd",0,2,2,35.9195668407213,6.99801355436267,17.9597834203607,3,221,3.2994663,90,-6.663946215,-6.663946215,-0.9077707575,0,TRUE,4.61942287,FALSE,6.9e-06,0,67
"mp-2782","ZnP2",1.462,24,2,465.533313268838,3.63420580157286,19.3972213862016,4,92,5.03440482000001,90.0001072627138,-4.27726032208333,-4.27726032208333,-0.248477447638889,4.78666666658967e-06,FALSE,3.55890404,FALSE,0,0,45
"mp-2783","Ta2Si",0,6,2,96.2444080201518,13.4569712836989,16.0407346700253,4,140,5.04354272129747,104.499455212433,-10.2700883483333,-10.2464216816667,-0.532797251666667,0.0016131517708348,FALSE,7.4834367,FALSE,0,0,87
"mp-2784","Na2Te",2.0282,3,2,95.9000297307406,3.00558410409843,31.9666765769135,3,225,5.13781016104243,59.9999883464201,-2.85839304333333,-2.99905971,-1.06960754992337,0,TRUE,0.70189012,FALSE,0,0,63
"mp-2786","Ca5Zn3",0,16,2,471.785491807625,2.79193843140154,29.4865932379766,4,140,7.8621806056087,114.625659897313,-1.926755509375,-1.926755509375,-0.200851730625,0,TRUE,2.25613418,FALSE,0.0003735,0,140
"mp-2789","NO2",2.8265,18,2,229.003202089515,2.00155969867892,12.7224001160842,3,204,6.67556128203284,109.471217721857,-6.30575249,-6.76375249,-0.687128374166666,0,TRUE,-2.01735835,FALSE,0,0,15
"mp-2790","Ni12P5",0,17,2,183.018644767113,7.7954785144283,10.7658026333596,4,87,5.03174928614505,81.4902865102067,-6.14846627470588,-6.14846627470588,-0.47622199862745,0,TRUE,9.87798706,FALSE,0,0,60
"mp-2793","AuSe",0.2628,4,2,99.9053776221216,9.17241610497544,24.9763444055304,1,12,3.69376625,103.422173033466,-3.4857636225,-3.7217636225,-0.336866883671875,0,TRUE,1.75157638,FALSE,0,0,113
"mp-2794","Fe5C2",0,14,2,129.331714774814,7.78699168850533,9.23797962677245,1,15,6.22366451356088,82.9419643949196,-8.62757929714286,-8.62757929714286,0.0591974221428565,0.0591974221428568,FALSE,6.89623389,TRUE,16.9045176,10,110
"mp-2795","ZrC",0,2,2,26.1694978612181,6.55057476791615,13.0847489306091,3,225,3.33249812348189,60.0000256200337,-9.69222058,-9.69222058,-0.80403751875,0,TRUE,5.77434079,FALSE,1.1e-06,0,46
"mp-2796","TmAg",0,2,2,45.1647231714023,10.1769961877032,22.5823615857012,3,221,3.56122804,90,-4.005690605,-4.005690605,-0.351494891666666,0,TRUE,3.72097765,FALSE,2e-07,0,116
"mp-2797","YCu5",0,6,2,87.4225747650042,7.72380265189121,14.5704291275007,6,191,5.00270152,90,-4.68399917,-4.68399917,-0.190248426111111,0,TRUE,5.78283527,FALSE,0,0,155
"mp-2798","SiP",1.7395,24,2,520.853922931605,2.25944835919247,21.7022467888169,7,36,3.52225672053344,90.0045733082962,-5.5545373225,-5.5545373225,-0.135227054166666,0,TRUE,3.50735638,FALSE,0,0,29
"mp-2800","USi3",0,4,2,64.2438220976513,8.33025645776084,16.0609555244128,3,221,4.00507319,90,-7.2680780225,-7.2148280225,-0.3229869975,0,TRUE,11.48368046,FALSE,0.0038635,0,120
"mp-2801","CeCu2",0,6,2,108.018248787592,8.21545114623305,18.0030414645986,7,74,4.37636431040574,74.1715960924677,-4.88542352,-4.88542352,-0.174922688333333,0,TRUE,7.36441435,FALSE,6.51e-05,0,87
"mp-2802","HfRu",0,2,2,33.5460598625489,13.8382958642769,16.7730299312744,3,221,3.22512961,90,-10.44471566,-10.44471566,-0.828919875,0,TRUE,6.81182449,FALSE,3.4e-06,0,116
"mp-2804","LaP2",0.5563,24,2,556.845906181529,4.79161993618893,23.2019127575637,1,9,8.87312363439523,118.287871943982,-6.36081006875,-6.36081006875,-1.10660602930556,0,TRUE,7.34736905,FALSE,2.57e-05,0,72
"mp-2805","LuAl3",0,4,2,72.4356940954682,5.86659989856046,18.108923523867,3,221,4.16854226,90,-4.34084766,-4.34084766,-0.4014281575,0,TRUE,6.0981507,FALSE,6e-07,0,97
"mp-2806","YbSn",0,4,2,108.175804955623,8.956943243996,27.0439512389059,4,123,3.60701591,90,-3.4335234,-3.4335234,-0.6589333325,0,TRUE,5.14956839,FALSE,2.2e-06,0,120
"mp-2807","ScP",0,2,2,37.7853227538259,3.33685623946234,18.8926613769129,3,225,3.76657071820897,59.9999945840163,-7.3637627,-7.3637627,-1.49087689416667,0,TRUE,5.86876851,FALSE,1e-07,0,36
"mp-2808","ZrRh",0,2,2,35.3755016219455,9.11251018217496,17.6877508109727,3,221,3.28272273,90,-8.70698976,-8.70698976,-0.750985510000001,0.0460357374999986,FALSE,5.58223373,FALSE,6.58e-05,0,85
"mp-2809","Sb2S3",1.2866,20,2,515.707911970143,4.37542272217595,25.7853955985071,7,62,3.84473291,90,-4.3827754025,-4.6845754025,-0.551104986375,0,TRUE,4.40757171,FALSE,0,0,83
"mp-2811","MoN",0,16,2,161.200575940491,9.06055276929769,10.0750359962807,6,186,5.74303458,90,-9.95768434625,-10.13818434625,-0.547111828750001,0,TRUE,9.77749657,FALSE,8e-07,0,49
"mp-2812","HoFe5",0,6,2,88.770261813512,8.30838217023217,14.7950436355853,6,191,5.11236506047132,90,-7.87597677,-7.87597677,-0.0538909499999995,0.0022928855555557,FALSE,4.61169232,TRUE,12.3831947,6,171
"mp-2814","Yb2O3",0,40,2,614.461402083317,8.51975071731751,15.3615350520829,3,206,9.2762440511498,109.471220634491,-5.87184144125,-6.28404144125,-2.7001849025,0.204094413,FALSE,-0.65644911,TRUE,16.0024924,24,86
"mp-2815","MoS2",1.4649,6,2,118.065187648622,4.50263949406875,19.6775312747703,6,194,3.192238,90,-7.23907211333333,-7.57440544666667,-1.20155549875,0,TRUE,3.87623833,FALSE,0,0,58
"mp-2816","Nd2Tl",0,6,2,185.635766975276,8.81754006391088,30.9392944958794,6,194,5.5679225100001,90,-4.23388203833333,-4.23388203833333,-0.267569367777778,0.0158338397222221,FALSE,4.5984334,TRUE,1.9120868,4,141
"mp-2818","YbAu",0,2,2,43.2529151982458,14.2050624774546,21.6264575991229,3,221,3.51025334,90,-3.355108755,-3.355108755,-0.948363615,0.0076066850000002,FALSE,3.25486029,FALSE,0,0,149
"mp-2819","InTe",0,2,2,58.5175411228446,6.87904091188633,29.2587705614223,3,221,3.882356,90,-3.018199905,-3.229199905,-0.281705093333333,0.21814349,FALSE,6.6459241,FALSE,2.86e-05,0,101
"mp-2822","TmSe",0,2,2,45.0555870702332,9.13622586799897,22.5277935351166,3,225,3.99412170718145,59.9999917179505,-5.638500285,-5.874500285,-1.88862683450521,0,TRUE,5.82238218,FALSE,3.9e-06,0,103
"mp-2823","NdP",0,2,2,51.5687479254968,5.6420337818835,25.7843739627484,3,225,4.17798709604598,60.0000130784346,-6.623107615,-6.623107615,-1.53238264541667,0,TRUE,4.22690269,FALSE,7e-07,0,75
"mp-2824","AlPd2",0,12,2,172.411212950322,9.23914464825826,14.3676010791935,7,62,4.07169292,90,-5.53294144166667,-5.53294144166667,-0.831161624999999,0,TRUE,6.17279053,FALSE,0,0,59
"mp-2825","ErPd3",0,4,2,67.3526799694869,11.9948279193815,16.8381699923717,3,221,4.06866282,90,-5.943102045,-5.943102045,-0.916260985,0,TRUE,5.2266599,FALSE,5.8e-06,0,160
"mp-2826","Lu2S3",2.5664,10,2,234.799076915974,6.31020055933441,23.4799076915974,2,167,7.17234744639315,55.6881601154258,-6.337479744,-6.639279744,-2.349029615875,0,TRUE,2.35414804,FALSE,0,0,103
"mp-2827","YCo5",0,6,2,83.2855801526506,7.64761437804895,13.8809300254418,6,191,4.92755541580488,90,-7.105846785,-7.105846785,-0.104503436944444,0.0119884578205127,FALSE,4.36452317,TRUE,7.1900299,6,147
"mp-2828","HfN",0,2,2,22.9597152825475,13.9221365164121,11.4798576412738,3,225,3.19026835946692,59.9999879974261,-10.89487598,-11.07537598,-1.9285340025,0,TRUE,8.05315587,FALSE,4e-07,0,79
"mp-2831","FePd",0,4,2,54.9417262605773,9.80847854557446,13.7354315651443,4,123,3.73837417,90,-6.88864197,-6.88864197,-0.0636904600000001,0.0084770966666667,FALSE,5.18495313,TRUE,7.0621443,2,72
"mp-2832","Cr2Se3",0,10,2,204.478899197572,5.53633266844788,20.4478899197572,2,148,6.92883892090177,54.3962213005432,-6.485994007,-6.769194007,-0.810428132406248,0,TRUE,3.87845968,TRUE,11.999659,4,92
"mp-2833","IrS2",0.537100000000001,24,2,405.325792945299,8.4016209284398,16.8885747060541,7,62,3.58569476,90,-6.1043243825,-6.43965771583333,-0.735879744583332,0,TRUE,7.0936233,FALSE,0,0,93
"mp-2836","Dy5Si3",0,16,2,390.994217763641,7.61698835340656,24.4371386102276,6,193,8.4213324,90,-5.595301594375,-5.568676594375,-0.654940558125,0,TRUE,4.36212825,FALSE,1.11e-05,0,292
"mp-2837","PrCo5",0,6,2,86.699180604403,8.34248969426069,14.4498634340672,6,191,5.04069754896929,90,-6.73494496333333,-6.73494496333333,-0.014529175000001,0.0243331042283951,FALSE,4.43388061,TRUE,7.0742107,6,167
"mp-2838","UNi5",0,6,2,74.8463605805712,11.7917520029988,12.4743934300952,3,216,4.73029261462875,60.0018810789144,-6.961951705,-6.961951705,-0.26326947,0,TRUE,9.46741866,FALSE,0.0049497,0,204
"mp-2839","CeC2",0,3,2,44.667479688627,6.10190158231712,14.889159896209,4,139,3.76631444226658,117.16945751387,-8.28952331,-8.28952331,-0.159383263333333,0.053652068749999,FALSE,7.09884809,FALSE,0.0011123,0,64
"mp-2840","PuIr2",0,6,2,104.12475277781,20.0440179676872,17.3541254629683,3,227,5.28067768454182,60,-10.7477980766667,-10.7477980766667,-0.0995625133333331,0.129477649666667,FALSE,11.43346981,TRUE,0.8046966,2,77
"mp-2841","ScSi2",0,3,2,50.7993997602384,3.30565299694856,16.9331332534128,6,191,4.03874271764828,90,-6.09778086,-6.05044752666667,-0.322745805,0.211541091666665,FALSE,7.62785615,FALSE,0.0046052,0,35
"mp-2843","SnF2",3.2704,24,2,414.659308788904,5.0203676804332,17.2774711995377,1,15,4.8766279182656,77.8578399141689,-4.870846405,-5.178846405,-2.56800314166667,0.0016553741666669,FALSE,1.8353949,FALSE,0,0,59
"mp-2844","ThSi2",0,6,2,123.082207492843,7.77663016006425,20.5137012488071,4,141,4.1381292595379,105.463047821232,-6.70516988666667,-6.65783655333333,-0.569671783333334,0.0029390733333336,FALSE,8.74530749,FALSE,0,0,104
"mp-2845","SbPt",0,4,2,83.7141849316741,12.5697177950721,20.9285462329185,6,194,4.1774426,90,-5.5155010525,-5.6115010525,-0.5114337725,0,TRUE,8.38533475,FALSE,3e-07,0,129
"mp-2847","ErB4",0,20,2,198.585323690221,7.04077116356837,9.92926618451105,4,127,3.98788465,90,-6.842885751,-6.842885751,-0.585828572333333,0,TRUE,5.88881192,FALSE,0,0,83
"mp-2849","US2",0,9,2,178.131463823857,8.45016366461377,19.7923848693175,6,189,7.21064808000114,90,-7.89147500333333,-8.22680833666667,-1.70537175541667,0,TRUE,9.35922096,TRUE,5.9433359,3,108
"mp-2850","B2Os",0,6,2,55.152717427496,12.756888100747,9.19211957124933,7,59,2.88398479,90,-8.40838486166667,-8.40838486166667,-0.213001204444443,0,TRUE,8.77705832,FALSE,0,0,81
"mp-2851","VSb2",0,6,2,121.114041548895,8.0744531039737,20.1856735914824,4,140,5.42567550143452,105.607382909418,-5.84382856666667,-5.97182856666667,-0.191192383333334,0,TRUE,9.4193892,TRUE,1.2742393,2,74
"mp-2852","C3N4",2.9168,14,2,80.9493820650521,3.77686391121247,5.78209871893229,3,220,4.72003417236645,109.471220634491,-8.00922556785714,-8.21551128214286,0.503342457499999,0.503342457499995,FALSE,10.29637594,FALSE,0.0190547,0,33
"mp-2853","GaN",0.4207,2,2,19.4700485547082,7.14104217531992,9.7350242773541,3,225,3.01967829585372,60,-5.67956574,-5.86006574,-0.17777026625,0.479046602499999,FALSE,5.62185216,FALSE,0,0,38
"mp-2856","Mn4Al11",0,15,2,212.759177353133,4.0315533208792,14.1839451568755,5,2,4.99964107543276,74.655734646161,-5.46695055333333,-5.46695055333333,-0.27699086678161,0,TRUE,7.87858887,TRUE,2.2966128,4,75
"mp-2857","ScN",0,2,2,22.9478721724548,4.26661434920762,11.4739360862274,3,225,3.18971977364363,59.9999911921652,-9.24722699,-9.42772699,-2.093244975,0,TRUE,5.54281572,FALSE,0,0,28
"mp-2858","ZrO2",3.5322,12,2,141.668365327228,5.77733138441211,11.8056971106023,1,14,5.15398783678777,90,-9.50349196833333,-9.96149196833333,-3.81446595083333,0,TRUE,2.69810887,FALSE,0,0,48
"mp-2861","CaTl",0,2,2,57.7581890485372,7.02822483891751,28.8790945242686,3,221,3.86548972,90,-2.629513065,-2.629513065,-0.445391551666666,0,TRUE,4.79976823,FALSE,8e-06,0,101
"mp-2863","CeCd3",0,4,2,97.4073061677696,8.13754834300838,24.3518265419424,3,225,5.1645869493936,59.9999898429761,-2.39735513,-2.39735513,-0.22191552125,0,TRUE,4.25386803,TRUE,1.0420405,1,154
"mp-2865","K2CuF4",0,28,3,429.128398997297,3.37017534530692,15.3260142499035,4,142,13.3422956917493,154.828894941591,-4.27722608214286,-4.54122608214286,-2.54609459157143,0,TRUE,0.18918937,TRUE,3.9979211,4,75
"mp-2866","Yb(FeSi)2",0,5,3,76.0818430990387,7.44040109025906,15.2163686198077,4,139,3.83079100991991,109.113965928671,-6.382106028,-6.353706028,-0.487648676,0,TRUE,5.60636877,TRUE,3.9067727,2,110
"mp-2868","Th11(Ru2C3)6",0,41,3,630.522058919871,10.485525867754,15.3785868029237,3,217,9.35637008982807,109.471220634491,-9.04853985926829,-9.04853985926829,-0.293387417926831,0,TRUE,7.89268723,FALSE,2.3e-06,0,56
"mp-2873","Ce(CrB3)2",0,9,3,82.8508211931034,6.19262093342039,9.20564679923371,7,71,3.06182628781242,72.743948351317,-7.87470203444444,-7.87470203444444,-0.617420398888888,0,TRUE,8.56549502,FALSE,4e-07,0,92
"mp-2874","In2Si2O7",2.7009,11,3,132.21193021005,4.99627445990235,12.0192663827318,1,12,4.71740417478334,104.798812451682,-6.88347622363636,-7.32065804181818,-2.68603763284091,0.0046284018181825,FALSE,3.69451198,FALSE,0,0,111
"mp-2877","Nd(CuSi)2",0,5,3,81.6711569384622,6.65883608599549,16.3342313876924,4,139,4.06883985686482,110.869241693846,-5.356880752,-5.328480752,-0.5650413855,0,TRUE,7.14624292,FALSE,0,0,103
"mp-2878","Li3PO4",5.6103,32,3,309.387410883116,2.48595844600367,9.66835659009738,7,62,4.8926448,90,-6.275430015,-6.618930015,-2.75307677104167,0.001056935624998,FALSE,0.44205676,FALSE,0,0,45
"mp-2879","SrSnO3",1.7365,20,3,266.217499939632,6.34551690905106,13.3108749969816,7,62,5.73820206,90,-6.3343352295,-6.7465352295,-2.63870894108333,0,TRUE,4.02610106,FALSE,0,0,104
"mp-2880","LuB2Os3",0,6,3,79.9842404345536,15.9293474259382,13.3307067390923,6,191,5.5197054652974,90,-8.93956259333333,-8.93956259333333,-0.34592320138889,0.0795817800000087,FALSE,6.79519157,FALSE,0.0031862,0,228
"mp-2881","Tb(GeRh)2",0,5,3,87.0693194240504,9.72675655881843,17.4138638848101,4,139,4.1111725806119,110.335287701885,-6.610905146,-6.610905146,-0.889097636,0,TRUE,6.3867664,FALSE,4e-07,0,142
"mp-2882","Y2Cu2O5",0.3311,36,3,487.182078255527,5.24766963021538,13.532835507098,7,33,3.543212,90,-7.29378674416667,-7.67545341083333,-2.57936461939815,0.0464288945833351,FALSE,3.56699691,TRUE,8.0021477,8,100
"mp-2883","Sm2Sn2O7",2.7353,22,3,292.276900220531,7.38735010314312,13.2853136463878,3,227,7.44908900627611,60,-7.29758714772727,-7.73476896590909,-2.99993833329545,0,TRUE,3.76067091,FALSE,0,0,160
"mp-2884","Cs2Mn3S4",0.4097,18,3,500.566809769961,3.70799830333197,27.8092672094423,7,72,6.08330976531484,73.9593348038777,-5.88830459833333,-6.11186015388889,-1.0204545885728,0,TRUE,3.0347527,TRUE,30.0000005,6,153
"mp-2885","Ga(MoS2)4",0,13,3,237.60411454632,4.96198359676705,18.2772395804862,3,216,6.95221164722939,60,-6.87841222076923,-7.18795068230769,-1.07238949788461,0.0458238387567089,FALSE,5.77365588,TRUE,0.9999958,4,89