"material_id","formula_pretty","band_gap","nsites","nelements","volume","density","density_atomic","crystal_symmetry","symmetry_number","sides_abc","angles_abc","uncorrected_energy_per_atom","energy_per_atom","formation_energy_per_atom","energy_above_hull","is_stable","efermi","is_magnetic","total_magnetization","num_magnetic_sites","atomic_number"
"mp-2622","Pa3As4",0,14,2,317.844972023592,10.373442612679,22.7032122873994,3,220,7.44639002358325,109.47123080368,-7.76731031071429,-7.76731031071429,-1.02724351071429,0,TRUE,9.26489982,TRUE,5.8097936,6,281
"mp-2623","V4As3",0,14,2,219.201993145623,6.49256992995147,15.6572852246874,1,12,3.43615534,101.003842602548,-7.65129210214286,-7.65129210214286,-0.463723602857144,0.0211166562500002,FALSE,7.0446785,TRUE,0.0604995,8,135
"mp-2624","AlSb",1.2255,2,2,59.151808660142,4.17554663612375,29.575904330071,3,216,4.37348508107187,60.0000056529934,-4.096786455,-4.192786455,-0.25549792,0,TRUE,4.4349805,FALSE,0,0,64
"mp-2625","U2C3",0,20,2,264.104036354927,12.8789446690515,13.2052018177463,3,220,7.00055238120715,109.471220644807,-10.1773794285,-10.1773794285,-0.123616129,0,TRUE,11.56936032,TRUE,11.5202049,8,104
"mp-2626","Zr3Rh5",0,16,2,263.698089092036,9.92677699357751,16.4811305682522,7,63,5.59263607787805,90,-8.6051917925,-8.6051917925,-0.7971116375,0,TRUE,5.72448761,FALSE,3e-07,0,260
"mp-2627","DyAs",0,2,2,48.9428289418139,8.0552728679289,24.4714144709069,3,225,4.10583323618458,60.0000096600168,-6.159070205,-6.159070205,-1.5261175825,0,TRUE,3.90524694,FALSE,0,0,99
"mp-2628","DyCo2",0,6,2,91.1051092291367,10.2202685995512,15.1841848715228,3,227,5.05062266339412,59.9935131890598,-6.47829044,-6.47829044,-0.203816296666666,0,TRUE,4.78119521,TRUE,4.0764993,6,93
"mp-2629","Ce7O12",0,19,2,295.607986794876,6.58807703070408,15.5583150944672,2,148,6.77007792068803,99.5869626182052,-8.79602285210526,-9.22991758894737,-3.91981818789474,0,TRUE,7.20593725,TRUE,4.0000001,7,348
"mp-2630","SrC2",1.6917,3,2,57.2041914892759,3.24075738723921,19.0680638297586,4,139,4.09778160738785,117.266568502894,-6.68668097,-6.68668097,0.0289271761111109,0.0615390362962955,FALSE,0.74384095,FALSE,0,0,44
"mp-2631","Ba4Al5",0,18,2,584.519337505172,3.88752540867731,32.4732965280651,6,194,6.11650028000009,89.9998016953615,-3.15555886055556,-3.15555886055556,-0.221805648333333,0,TRUE,3.76579398,FALSE,0.000709,0,220
"mp-2632","TlF3",1.2702,16,2,199.542881513323,8.70047025619411,12.4714300945827,7,62,4.80009224,90,-3.778011025625,-4.124511025625,-2.10024101333333,0,TRUE,0.24903702,FALSE,0,0,99
"mp-2633","GeO2",0.7937,12,2,108.270520930068,6.41935824412901,9.02254341083902,3,205,4.766176,90,-6.2341200625,-6.6921200625,-1.85331830333333,0.224602759722224,FALSE,6.29350416,FALSE,9.3e-06,0,40
"mp-2634","NbN",0,2,2,22.1815263762943,8.00365777624138,11.0907631881472,6,187,2.97204749,90,-10.286600965,-10.467100965,-1.2482009825,0,TRUE,7.1292139,FALSE,0,0,48
"mp-2636","GdMg",0,2,2,56.2098737461322,5.3634557444155,28.1049368730661,3,221,3.83063586,90,-7.94441175,-7.94441175,-0.106210605,0,TRUE,3.00842605,TRUE,8.0174808,1,76
"mp-2637","YSe",0,2,2,47.6953405106036,5.84434032525766,23.8476702553018,3,225,4.07064865725324,60.0000054653398,-6.74155528,-6.97755528,-1.99636398450521,0,TRUE,5.74329053,FALSE,6e-07,0,73
"mp-2639","Na3N",0,4,2,106.8985148721,1.28893186938736,26.7246287180249,3,221,4.745958,90,-2.83863634,-2.92888634,0.147131361336207,0.270991595632184,FALSE,-0.22464208,FALSE,4.3e-06,0,29
"mp-2640","TbAs",0,2,2,49.7726263879544,7.80171801772214,24.8863131939772,3,225,4.12890824450787,59.9999904606628,-6.17790794,-6.17790794,-1.5311656875,0,TRUE,4.1891289,FALSE,1e-07,0,98
"mp-2642","CdAg",0,2,2,37.6869069464872,9.70581686840951,18.8434534732436,3,221,3.3527165,90,-1.93464121,-1.93464121,-0.0569183283333332,0.0066506789473683,FALSE,4.45720631,FALSE,9e-07,0,95
"mp-2643","Ti3Cu4",0,7,2,96.0243117419625,6.87885724588669,13.7177588202804,4,139,3.11489272547621,98.8362121860818,-5.85201386,-5.85201386,-0.125827755714285,0,TRUE,6.62981495,TRUE,0.511813,1,131
"mp-2644","CoSb",0,4,2,66.0023956644508,9.09203692822559,16.5005989161127,6,194,3.84467794,90,-5.78021967,-5.87621967,-0.257560152500001,0,TRUE,8.80635034,FALSE,0.0145403,0,78
"mp-2645","YbNi5",0,6,2,76.4997680525077,10.1262149946737,12.7499613420846,6,191,4.75690924201035,90,-5.32626175,-5.32626175,-0.252879803333333,0,TRUE,5.8184871,TRUE,2.383677,6,182
"mp-2646","Mg3Sb2",0.0599999999999996,5,2,131.179156882609,4.0056110439084,26.2358313765218,2,164,4.57251605,90,-2.974268536,-3.051068536,-0.43930001,0.0069453082500001,FALSE,4.77099239,FALSE,0,0,75
"mp-2647","Al2Au",0,3,2,54.1261698999636,7.69828127970859,18.0420566333212,3,225,4.24594267825734,59.9999862678069,-4.01139991666667,-4.01139991666667,-0.423055363333333,0,TRUE,7.25105118,FALSE,4e-07,0,92
"mp-2648","NbS2",0,3,2,112.791406649815,2.3119229701341,37.5971355499383,7,42,3.37182553256266,85.8253694415489,-7.13180166,-7.46713499333333,-1.34240006875,0.0067723683333333,FALSE,-0.43428865,TRUE,0.8663436,1,57
"mp-2649","Zr5Sb3",0,16,2,361.353437122651,7.54921165364359,22.5845898201657,6,193,8.49546287,90,-7.557472023125,-7.629472023125,-0.738783664375001,0.0086283253124994,FALSE,7.07143644,TRUE,2.0438716,6,262
"mp-2650","P4S7",2.7617,44,2,1137.91584593484,2.03336253949699,25.8617237712464,1,14,6.99360934512483,90,-4.77930794818182,-5.09939885727273,-0.498638939564394,0,TRUE,0.36606083,FALSE,0,0,141
"mp-2651","PrF3",7.5968,24,2,314.066619826844,6.27813480984711,13.0861091594518,2,165,7.06402107,90,-6.69426908125,-7.04076908125,-4.411933416875,0,TRUE,-0.28738757,FALSE,0,0,77
"mp-2652","Y2O3",4.0973,40,2,596.827690917007,5.02612283285872,14.9206922729252,3,206,9.18664496684133,109.471222578026,-9.11408512575,-9.52628512575,-3.97168345366667,0,TRUE,1.54096723,FALSE,0,0,55
"mp-2653","BN",5.1976,4,2,23.8764184278152,3.45200520905176,5.96910460695381,6,186,2.55393920348077,90,-8.6941192575,-8.8746192575,-1.36667590958333,0.0947041199999993,FALSE,7.53277692,FALSE,8.59e-05,0,12
"mp-2654","Al2S3",2.7599,30,2,637.305661560438,2.34747658835125,21.2435220520146,6,169,6.54983833000028,90,-5.03664445733333,-5.33844445733333,-1.35834420520833,0,TRUE,3.25636317,FALSE,2e-07,0,45
"mp-2656","Nd3S4",0,14,2,315.99979358364,5.89582137539659,22.5714138274029,3,220,7.43195243726798,109.471222775905,-6.42104125857143,-6.70846983,-2.301292435,0.0354187832142889,FALSE,6.3841979,FALSE,2.9e-06,0,168
"mp-2657","TiO2",1.781,12,2,125.225060135569,4.23622175438966,10.435421677964,4,136,5.46950205996501,114.491260579736,-8.93688809,-9.39488809,-3.46526494361111,0.037221306666666,FALSE,3.2964511,FALSE,0,0,30
"mp-2658","AlFe",0,2,2,23.0397900403468,5.96952936010708,11.5198950201734,3,221,2.845506,90,-6.434685535,-6.434685535,-0.326887015,0,TRUE,8.18143475,TRUE,0.7174963,1,39
"mp-2659","LiN3",3.617,4,2,42.0877084511027,1.931723590705,10.5219271127757,1,12,3.20008855893794,77.3271524611067,-6.8610141875,-7.1317641875,-0.402162277083333,0,TRUE,0.5238216,FALSE,0,0,17
"mp-2661","SrSi",0,4,2,110.840048238963,3.4668606884086,27.7100120597407,7,63,4.05582393,113.103473405515,-4.0240763375,-3.9885763375,-0.431170595833334,0,TRUE,4.12475233,FALSE,1e-07,0,52
"mp-2662","MnP",0,8,2,96.14176208647,5.93539825814263,12.0177202608087,7,62,3.21772565,90.0012926623616,-7.9039889175,-7.9039889175,-0.616330018132184,0,TRUE,8.86612562,TRUE,6.5318725,4,40
"mp-2663","Nb3Pt",0,8,2,140.183571498607,11.2248334870762,17.5229464373258,3,223,5.19478774,90,-9.47528601,-9.47528601,-0.381523899999999,0,TRUE,5.88657568,FALSE,1.04e-05,0,160
"mp-2664","TiO",0,2,2,19.7297025897132,5.37527880924046,9.86485129485662,3,225,3.03304261401814,60,-8.71373877,-9.05723877,-2.63614840604167,0.272444019999982,FALSE,9.28455885,FALSE,1e-05,0,30
"mp-2665","PrRu2",0,6,2,112.640618357595,10.1143625245717,18.7734363929325,3,227,5.42091130511543,59.9998064576275,-7.87328156166667,-7.87328156166667,-0.0967112833333333,0,TRUE,5.92373598,TRUE,0.7637249,4,103
"mp-2666","CrSb2",0,6,2,122.947757197739,7.98251289887372,20.4912928662898,4,140,5.44343157981966,106.316452706667,-5.82619666333333,-5.95419666333333,0.0161533199999996,0.0508273949999997,FALSE,9.13750807,TRUE,4.0538526,2,75
"mp-2667","CsAu",1.0233,2,2,78.5597185601713,6.97259852405392,39.2798592800856,3,221,4.28285436,90,-2.39192245,-2.39192245,-0.307280263965517,0,TRUE,1.12257061,FALSE,0,0,134
"mp-2668","Mn3As",0,8,2,120.693036655609,6.59674434679268,15.0866295819511,7,63,3.65812999629193,90,-8.16891555,-8.16891555,-0.132624479698276,0.0026618285344834,FALSE,6.4524512,TRUE,5.3347623,6,83
"mp-2669","Mo8O23",0.3371,62,2,929.500547188981,4.05713027532657,14.9919443094997,1,13,13.69758,90,-7.065194355,-8.40122661306452,-1.93222528278226,0.0059999758870965,FALSE,2.04204164,TRUE,2.0273201,8,302
"mp-2670","Nb3Ga",0,8,2,139.427566030977,8.29967562929639,17.4284457538721,3,223,5.18540562,90,-8.50498354125,-8.50498354125,-0.171980755625,0.0550307906249987,FALSE,5.02231986,FALSE,1.0942645,0,113
"mp-2672","K2O2",2.3575,8,2,150.316184931596,2.43465155455993,18.7895231164495,7,64,4.82932164373215,90,-4.0921242175,-4.3246242175,-1.296080388375,0,TRUE,0.88468063,FALSE,0,0,27
"mp-2673","YbPb",0,2,2,55.5110955789283,11.3743634150802,27.7555477894641,4,123,3.53598404,90,-3.176813685,-3.176813685,-0.55068601,0,TRUE,4.92549954,FALSE,0,0,152
"mp-2674","YPt2",0,6,2,111.958923743741,14.2109412472079,18.6598206239569,3,227,5.40992592987795,59.9999930253777,-7.28702266833333,-7.28702266833333,-1.08411008388889,0,TRUE,6.27521044,FALSE,7.6e-06,0,117
"mp-2675","MgNi2",0,24,2,306.110397085996,6.14901738867171,12.7545998785832,6,194,4.75394307000011,90,-4.60739730041667,-4.60739730041667,-0.22054616375,0,TRUE,6.33009596,TRUE,4.4373261,16,40
"mp-2676","TaBe2",0,6,2,69.0286622442369,9.57286940204762,11.5047770407061,3,227,4.6044890461682,60.0000039919261,-6.63442532833333,-6.63442532833333,-0.188890875000001,0.0354141964285723,FALSE,4.46407521,FALSE,0,0,77
"mp-2677","ScPd3",0,4,2,63.0280978505479,9.5956370440916,15.757024462637,3,221,3.97964867,90,-6.323612315,-6.323612315,-0.85558368125,0,TRUE,5.53337426,FALSE,1.2e-06,0,113
"mp-2678","VPt",0,4,2,56.1782089819758,14.5442498624644,14.044552245494,4,123,3.79896637,90,-8.127860775,-8.127860775,-0.550341080000001,0,TRUE,7.70571696,FALSE,0.0001015,0,101
"mp-2680","LaB6",0,7,2,71.6082307834155,4.72530158742418,10.2297472547736,3,221,4.15260843,90,-6.99256125571429,-6.99256125571429,-0.562224437142856,0,TRUE,8.81891007,FALSE,1.5e-06,0,82
"mp-2681","Ho5Sb3",0,16,2,430.271586598301,9.18456142550988,26.8919741623938,6,193,8.90295062001024,90.0000148465317,-5.314591344375,-5.386591344375,-0.974210335625,0,TRUE,5.54905872,FALSE,0.0164643,0,370
"mp-2682","Sb2Rh",0,12,2,265.706684725738,8.65997145702546,22.1422237271448,1,14,6.60559764,116.128371290506,-5.66933796166667,-5.79733796166667,-0.589901178333334,0,TRUE,7.94051742,FALSE,0,0,96
"mp-2684","TbGa2",0,3,2,62.5991379612042,7.91476207445926,20.8663793204014,6,191,4.17582484,90,-4.22087470666667,-4.22087470666667,-0.657355325,0,TRUE,3.77510546,FALSE,2.73e-05,0,96
"mp-2685","HgPd",0,4,2,70.7552037540577,14.4103068548546,17.6888009385144,4,123,3.77477032,90,-2.911492435,-2.911492435,-0.1697113475,0,TRUE,3.86727113,FALSE,0,0,126
"mp-2686","Ca2N",0,3,2,72.2550748874401,2.16401190103417,24.08502496248,2,166,6.75485490265045,30.9367745295289,-4.87148231333333,-4.99181564666667,-0.875917418333334,0,TRUE,2.55187925,FALSE,1.3e-06,0,27
"mp-2688","HoGa3",0,4,2,75.5540333781921,8.22201685168802,18.888508344548,3,221,4.22752208,90,-3.9492007425,-3.9492007425,-0.532526508125,0,TRUE,3.60514987,FALSE,1.3e-06,0,129
"mp-2689","ThFe5",0,6,2,91.3672445128206,9.29186700295347,15.2278740854701,6,191,5.08754342413078,90.0000000739654,-8.34814828,-8.34814828,-0.0541542300000005,0,TRUE,5.94832499,TRUE,11.5568201,6,194
"mp-2691","CdSe",0.5096,2,2,57.8842234705773,5.48990731258296,28.9421117352886,3,216,4.34202011826733,59.9999960617554,-2.829013345,-3.065013345,-0.855612726171874,0,TRUE,0.4845965,FALSE,0,0,82
"mp-2692","NbO",0,2,2,22.9499727014406,7.87984825172333,11.4749863507203,3,225,3.18981667268857,60,-8.680033545,-9.023533545,-1.499536669375,0.788760408333331,FALSE,7.78533879,FALSE,0.0005022,0,49
"mp-2693","SnSe",0.207,2,2,54.5653822829582,6.01551283179294,27.2826911414791,3,225,4.25739655313466,60.0000005580698,-4.18265949,-4.41865949,-0.665917823671875,0.0026322437499999,FALSE,5.44755427,FALSE,0,0,84
"mp-2694","LaAl2",0,6,2,134.288835913715,4.76980465523979,22.3814726522859,3,227,5.7480199775616,60.0000070588852,-4.64342495,-4.64342495,-0.501038695,0,TRUE,8.2020018,FALSE,2.9e-05,0,70
"mp-2695","Sb2Os",0.344700000000001,6,2,130.076042542225,11.0744270207012,21.6793404237041,7,58,3.24311781,90,-6.51126582833333,-6.51126582833333,-0.0161425250000005,0,TRUE,8.27410107,FALSE,0,0,127
"mp-2696","MgAg",0,2,2,36.0657956044797,6.08551006511759,18.0328978022399,3,221,3.30393762,90,-2.46712257,-2.46712257,-0.250704543333333,0,TRUE,4.19498921,FALSE,0,0,59
"mp-2697","SrO2",2.8495,3,2,41.9842169419187,4.73110385206423,13.9947389806396,4,139,3.54424073699772,115.100415474932,-5.7572625,-6.0672625,-2.20630554138889,0,TRUE,2.59636997,FALSE,0,0,46
"mp-2698","YCu2",0,6,2,105.877298258314,6.77525539708304,17.6462163763857,7,74,4.29160717102168,77.899686068313,-5.14935381666667,-5.14935381666667,-0.261058998888889,0,TRUE,5.14481989,FALSE,0,0,68
"mp-2699","CaSi2",0,6,2,131.180821087072,2.43671633241416,21.8634701811786,2,166,10.3596921338834,21.5278410135423,-4.66728691,-4.61995357666667,-0.334541596666667,0.0007688049999998,FALSE,5.41643731,FALSE,0,0,34
"mp-2700","CaSi2",0,3,2,67.3459391098022,2.37319765280281,22.4486463699341,2,166,5.72481075131846,39.173104304579,-4.66557808666667,-4.61824475333333,-0.332832773333334,0.0024776283333336,FALSE,5.33186063,FALSE,1e-07,0,34
"mp-2701","NbN",0,4,2,43.626855952597,8.13871832815232,10.9067139881492,6,194,2.99142413,90,-10.2463780225,-10.4268780225,-1.20797804,0.0402229424999998,FALSE,7.91539207,FALSE,0,0,48
"mp-2705","VPt3",0,4,2,59.1003644007321,17.8750870892075,14.775091100183,4,139,3.86952673338074,113.756391707866,-7.267778075,-7.267778075,-0.443451567499999,0,TRUE,7.55832827,TRUE,1.0389926,1,179
"mp-2706","SnF4",3.115,5,2,64.6120399633252,5.00391189700986,12.922407992665,4,139,4.07831223029714,114.93589048883,-4.67101209,-5.04061209,-2.709514545,0,TRUE,-0.76186808,FALSE,0,0,77
"mp-2707","USb2",0,6,2,167.347193393035,9.55654841077161,27.8911988988391,4,129,4.32634442,90,-6.77425290833333,-6.90225290833333,-0.385782078333333,0,TRUE,9.30222744,TRUE,4.0361828,2,143
"mp-2708","LaNi2",0,6,2,97.5059468799356,8.72938195916685,16.2509911466559,3,227,5.16632907002916,59.9999967074639,-5.81770817,-5.81770817,-0.318948015,0.0236394288888899,FALSE,9.65673913,FALSE,1e-07,0,85
"mp-2713","ErIr",0,2,2,38.3385784978935,15.5697984873878,19.1692892489468,3,221,3.37193092,90,-7.62466015,-7.62466015,-0.921583655000001,0,TRUE,5.65615563,FALSE,0,0,145
"mp-2714","Pr2Au",0,12,2,354.896596098286,8.96076216672513,29.5747163415239,7,62,5.13435636,90,-4.81639241333333,-4.81639241333333,-0.53782791,0,TRUE,4.13685706,FALSE,3e-07,0,138
"mp-2715","CoAs2",0.1723,12,2,183.768389779818,7.5460499054661,15.3140324816515,1,14,5.84491764,115.791567394276,-5.80130801666667,-5.80130801666667,-0.325789815,0,TRUE,6.28072553,FALSE,0,0,60
"mp-2716","TiNi",0,18,2,239.769447209738,6.64191948934861,13.3205248449855,2,147,7.21891958258114,89.9993531737585,-7.20890596555556,-7.20890596555556,-0.371091617222222,0.0247634094444446,FALSE,7.17674161,TRUE,3.4928622,16,50
"mp-2717","Zr2Ni7",0,18,2,227.11157772608,8.67591892098389,12.6173098736711,1,12,4.64304075746442,87.2504038529621,-6.82245695555556,-6.82245695555556,-0.427306064444444,0,TRUE,6.90258878,FALSE,1.4e-06,0,208
"mp-2718","C2N",3.119,72,2,1376.94196119975,1.10065023725852,19.124193905552,3,205,11.125133,90,-8.43720451708333,-8.55753785041667,0.373737452916667,0.373737452916663,FALSE,-3.63512737,FALSE,3.83e-05,0,13
"mp-2719","DyB4",0,20,2,201.85686908875,6.77006338720809,10.0928434544375,4,127,4.01251287,90,-6.861302839,-6.861302839,-0.596432054333333,0,TRUE,5.90631589,FALSE,0,0,81
"mp-2720","NdPt2",0,6,2,116.850687605577,15.1887626982068,19.4751146009296,3,227,5.48759536900364,59.9999956124167,-6.67479559666667,-6.67479559666667,-1.03799090583333,0,TRUE,6.3422309,FALSE,1e-07,0,138
"mp-2721","Ce2O3",0,5,2,76.509281320383,7.12382942999527,15.3018562640766,2,164,3.87098374,90,-8.655422244,-9.067622244,-3.72637335525,0.0441855872500003,FALSE,8.41138892,TRUE,2.0000001,2,74
"mp-2723","IrO2",0,6,2,64.4803164972231,11.5483023494466,10.7467194162038,4,136,3.17670624,90,-7.04767823833333,-7.50567823833333,-1.2617410375,0,TRUE,5.64300938,FALSE,0,0,85
"mp-2724","TbSb",0,2,2,60.0838892138099,7.7573039161747,30.041944606905,3,225,4.39633758388312,59.999993744861,-5.52239785,-5.61839785,-1.23671418,0,TRUE,5.36213645,FALSE,0,0,116
"mp-2725","TbIr2",0,6,2,107.67920162257,16.758471724929,17.9465336037617,3,227,5.34009442363564,59.9999964345111,-8.25580587166667,-8.25580587166667,-0.818727718333333,0,TRUE,6.96795834,FALSE,1.8e-06,0,142
"mp-2726","SrCu5",0,6,2,94.0575212903632,7.15625397535617,15.6762535483939,6,191,5.22916243,90,-3.760327725,-3.760327725,-0.0627399244444439,0,TRUE,5.2272962,FALSE,0,0,154
"mp-2729","Sn7Os3",0,20,2,420.373237814982,11.0735459763733,21.0186618907491,3,229,8.17370530188131,109.471224238554,-6.1550043065,-6.1550043065,0.0199062209999993,0.0199062210000002,FALSE,8.51648166,FALSE,5.3e-06,0,452
"mp-2730","HgTe",0,2,2,71.2215521729714,7.65178937611348,35.6107760864857,3,216,4.65274056906873,60.0000023956681,-1.891953245,-2.102953245,-0.379460115833333,0,TRUE,2.20912772,FALSE,0,0,132
"mp-2731","TiGa3",0,4,2,61.7875833213053,6.90783320174661,15.4468958303263,4,139,3.76086340290483,111.573020305507,-4.6190734475,-4.6190734475,-0.374128426458333,0,TRUE,5.3310122,FALSE,2e-06,0,84
"mp-2732","PRh2",0,3,2,41.8273196312842,9.40032378700408,13.9424398770947,3,225,3.89635331239037,60.0000032816698,-7.45829133,-7.45829133,-0.744318581111112,0,TRUE,8.22664015,FALSE,4e-07,0,60
"mp-2733","Al8Mo3",0,11,2,163.881484263671,5.10349017941147,14.8983167512428,1,12,3.63041885,100.114122567048,-6.01770686818182,-6.01770686818182,-0.335747143636364,0,TRUE,8.35890827,FALSE,0,0,175
"mp-2735","PaO",0,2,2,30.1000998153632,13.6282515933417,15.0500499076816,3,225,3.49162540324818,60,-9.662301695,-10.005801695,-2.775125009375,0.249885565,FALSE,13.29241398,TRUE,0.6044813,1,99
"mp-2738","DyNi",0,8,2,155.548700010076,9.44528066001935,19.4435875012595,7,62,4.23734872,90,-5.64767925,-5.64767925,-0.45421749,0,TRUE,4.83623982,FALSE,1e-06,0,94
"mp-2739","TeO2",2.8307,12,2,178.257526276515,5.94690272928791,14.8547938563763,4,96,4.82587151,90,-5.37203502916667,-5.83003502916667,-1.48447392388889,0.0110769212500008,FALSE,4.17095551,FALSE,0,0,60
"mp-2740","ErCo5",0,6,2,81.9296695183677,9.36223069536202,13.6549449197279,6,191,4.894322,90,-6.80901191333333,-6.80901191333333,-0.124127282500001,0.0246264093434342,FALSE,4.69329402,TRUE,7.2274907,6,176
"mp-2741","CaF2",7.1157,3,2,41.9589922058109,3.0898326992343,13.9863307352703,3,225,3.90043765888458,59.9999968465346,-5.8591337,-6.1671337,-4.224281095,0,TRUE,-1.01894632,FALSE,1e-06,0,29
"mp-2743","LiPd",0,2,2,25.9258808360149,7.26071257981516,12.9629404180075,3,221,2.95967829,90,-3.96499777,-3.96499777,-0.420595431666666,0.0171118099999998,FALSE,2.9022705,FALSE,1.1e-06,0,49
"mp-2744","LiPd",0,2,2,27.4083083839842,6.86800390931238,13.7041541919921,6,187,2.77622617,90,-3.98210958,-3.98210958,-0.437707241666666,0,TRUE,2.64572742,FALSE,1e-07,0,49
"mp-2746","MoC",0,2,2,21.0519855694826,8.5149381290034,10.5259927847413,3,225,3.09934094582219,60,-9.823171295,-9.823171295,0.21398650625,0.298398253124999,FALSE,9.66294359,FALSE,2.7e-05,0,48
"mp-2747","TbPd3",0,4,2,68.899663252008,11.5246637976515,17.224915813002,3,221,4.09957686,90,-5.927455765,-5.927455765,-0.8839528825,0,TRUE,5.02942624,FALSE,1.2e-06,0,157