"material_id","formula_pretty","band_gap","nsites","nelements","volume","density","density_atomic","crystal_symmetry","symmetry_number","sides_abc","angles_abc","uncorrected_energy_per_atom","energy_per_atom","formation_energy_per_atom","energy_above_hull","is_stable","efermi","is_magnetic","total_magnetization","num_magnetic_sites","atomic_number"
"mp-4081","TaCu3Se4",1.598,8,3,182.050806442569,6.27021407615675,22.7563508053211,3,215,5.66757839,90,-5.28211553625,-5.51811553625,-0.750735092421875,0,TRUE,2.82067271,FALSE,0,0,233
"mp-4083","MgCuAs",0,6,3,98.3985228709792,5.49378696723856,16.3997538118299,4,129,3.97212863,90,-3.80307227166667,-3.80307227166667,-0.350203896666667,0.0039198370833335,FALSE,6.19938334,FALSE,0,0,74
"mp-4086","La2Sn2O7",2.6645,22,3,308.705784226094,6.74774855934251,14.0320811011861,3,227,7.58612372660138,60,-7.35526333909091,-7.79244515727273,-3.01808343920455,0,TRUE,5.65921909,FALSE,0,0,155
"mp-4088","La(FeSi)2",0,5,3,81.0864540667963,6.28215543052792,16.2172908133593,4,139,4.03915815593098,110.628955964962,-7.157835536,-7.129435536,-0.584098419,0,TRUE,8.09642078,FALSE,7.92e-05,0,97
"mp-4090","Ce(SiRh)2",0,5,3,84.6700541919026,7.8858983140415,16.9340108383805,4,139,4.09818229167927,110.633424216359,-7.364341148,-7.364341148,-1.061872957,0,TRUE,8.45082986,TRUE,0.6664137,1,117
"mp-4091","Ni2Mo3N",0,24,3,289.303679624051,9.62477068941157,12.0543199843354,3,213,6.61380398,90,-8.9961987675,-9.05636543416667,-0.317412331666668,0,TRUE,8.50146514,FALSE,3.26e-05,0,119
"mp-4092","SrSeO4",3.5358,24,3,350.332569237005,4.37165306687592,14.5971903848752,1,14,7.36067571,52.8803229746405,-5.85604430416667,-6.31404430416667,-2.15201767483507,0,TRUE,0.56288783,FALSE,0,0,96
"mp-4093","Cu3(PO4)2",0,13,3,140.947419808317,4.48372280284638,10.8421092160244,5,2,4.84286022215275,72.5674430304522,-6.26808898692308,-6.69085821769231,-1.8679555474359,0,TRUE,2.86364683,TRUE,3.0016981,3,97
"mp-4096","CeAlO3",0,10,3,106.622070290063,6.69983008269858,10.6622070290063,4,140,5.33074943374915,120.30143003712,-8.107820075,-8.520020075,-3.61627385125,0.0056001959999996,FALSE,10.48681647,TRUE,2,2,87
"mp-4100","Ca4IrO6",0,22,3,288.731888909754,5.15906955670687,13.1241767686252,2,167,6.61041680090908,90.9774458924346,-6.59357200181818,-6.96829927454545,-2.73730236840909,0.0221065136363627,FALSE,4.3669105,TRUE,1.9988273,2,177
"mp-4103","Sr2Sb2O7",1.3704,22,3,300.305596223156,5.86962581989058,13.6502543737798,7,74,7.4783775475948,119.969142178514,-6.34002467181818,-6.77720649,-2.57140554768939,0,TRUE,3.65151314,FALSE,0,0,137
"mp-4104","HoPO4",5.9209,12,3,140.632781973328,6.13764287928118,11.7193984977773,4,141,5.69546828567303,106.110683331928,-8.01553458,-8.47353458,-3.50979020972222,0,TRUE,2.10190158,FALSE,1e-07,0,106
"mp-4105","Ho(CuSi)2",0,5,3,76.8433667447095,7.5242488074478,15.3686733489419,4,139,3.93239317738289,110.199475013061,-5.315106972,-5.286706972,-0.560415318,0,TRUE,7.32906416,FALSE,4.7e-06,0,110
"mp-4106","YbSnPd",0,9,3,188.253625690037,10.5364797792011,20.9170695211152,6,189,7.40474611,90,-4.43588007,-4.43588007,-0.859526088333333,0.0132113675000002,FALSE,5.43784929,FALSE,1e-07,0,166
"mp-4107","Li(CoGe)6",0,13,3,163.745934424487,8.07605018590797,12.5958411095759,6,191,5.00480192019953,90,-5.82326454,-5.82326454,-0.261957096410256,0,TRUE,5.1130441,FALSE,0.0421327,0,190
"mp-4109","Ba(AsRu)2",0,5,3,108.090527101583,7.51702045103597,21.6181054203166,4,139,4.17121002183094,107.654058722987,-6.653371366,-6.653371366,-0.696168,0,TRUE,5.19197746,FALSE,1e-07,0,133
"mp-4112","Tl2SO4",3.7965,28,3,485.315479563726,6.90922621560724,17.3326956987045,7,62,5.86638852,90,-5.37491837964286,-5.76748980821429,-1.67484823604167,0,TRUE,1.66391084,FALSE,0,0,121
"mp-4117","Li2Si2O5",5.154,18,3,201.805647334818,2.46934503800024,11.2114248519344,7,37,4.76947857687687,111.616347318034,-7.01294419611111,-7.39461086277778,-3.01661915726852,0,TRUE,0.73310869,FALSE,0,0,49
"mp-4120","CaCuAs",0,6,3,119.318643887292,4.96958286333851,19.8864406478819,6,194,4.15812582,90,-4.39963032833333,-4.39963032833333,-0.811655343333333,0,TRUE,5.37496287,FALSE,0,0,82
"mp-4122","GaPO4",4.4391,18,3,230.249887688322,3.56327759672953,12.791660427129,2,152,4.8963081331964,90.0002300984378,-6.82928299166667,-7.28728299166667,-2.58259076263889,0.0105269783333321,FALSE,-0.02610094,FALSE,0,0,70
"mp-4123","ErTlS2",1.4109,4,3,102.414730491929,7.065555167859,25.6036826229822,2,166,7.84954696575968,29.2873713830329,-5.286545455,-5.538045455,-1.73723003239583,0,TRUE,3.9599144,FALSE,0,0,165
"mp-4124","CaCN2",3.5774,4,3,58.3339681199763,2.28019232453261,14.5834920299941,2,166,5.3793779505976,40.1512850892545,-7.8683714,-8.0488714,-1.072057594375,0,TRUE,1.75282132,FALSE,0,0,33
"mp-4126","KUO3",0.4454,5,3,79.4439339794903,6.79577933525701,15.8887867958981,3,221,4.29886276,90,-8.37624244,-8.78844244,-3.34006742185,0,TRUE,4.86787333,TRUE,1,1,127
"mp-4131","Sc(CoSi)2",0,5,3,67.0436632083538,5.42403138331828,13.4087326416708,4,139,3.74921818934019,110.092422228469,-7.071256568,-7.042856568,-0.762908416999999,0,TRUE,7.1932128,FALSE,2e-07,0,62
"mp-4135","RbPO3",5.1119,20,3,330.326119554358,3.30653415202877,16.5163059777179,1,14,4.23479786,66.4975958864776,-6.5127406455,-6.9249406455,-2.67816010291667,0.0016271387499999,FALSE,-0.40788997,FALSE,0,0,68
"mp-4136","CePO4",0,24,3,300.815839193139,5.19084034553511,12.5339932997141,1,14,7.03293869,53.7250473146952,-8.13518677625,-8.59318677625,-3.40432902513889,0.0016711098611192,FALSE,7.29421011,TRUE,4.0000001,4,97
"mp-4138","Rb2CO3",3.2867,24,3,430.43102882819,3.56379850690995,17.9346262011746,1,14,10.02755033,81.5680126512572,-6.08021012583333,-6.42371012583333,-2.08541016395833,0,TRUE,0.18989602,FALSE,0,0,59
"mp-4139","Nb4GaS8",0,13,3,256.668630817829,4.51491846556352,19.7437408321407,3,216,7.13338937513213,60,-6.87918000230769,-7.18871846384615,-1.30218653173077,0.0334620137820564,FALSE,4.94643765,FALSE,0.2139966,0,266
"mp-4142","MnSbPd",0,3,3,58.2618290414173,8.06923816016333,19.4206096804724,3,216,4.35144037911333,60,-6.25080233666667,-6.25080233666667,-0.0938362226436773,0.264541150689656,FALSE,5.85208484,TRUE,3.2676741,1,122
"mp-4147","Th(GePd)2",0,5,3,94.7901160764218,10.3384250875775,18.9580232152844,4,139,4.31725528798609,111.341308890999,-6.21803402,-6.21803402,-0.814098504,0,TRUE,6.9937006,FALSE,3e-07,0,168
"mp-4148","Ho(SiPd)2",0,5,3,84.1559230275174,8.56239808856183,16.8311846055035,4,139,4.11710430124197,110.957433549677,-6.097251826,-6.068851826,-0.910290116,0,TRUE,6.1666179,FALSE,3.4e-06,0,127
"mp-4150","Ca(MnSb)2",0,5,3,129.048010971885,5.06306988553455,25.809602194377,2,164,4.47528557611791,90.0001806489237,-6.01906537,-6.09586537,-0.378338781172414,0.0746237927598505,FALSE,4.41315015,TRUE,1.6e-06,2,96
"mp-4152","Ga2CoS4",0.3238,7,3,147.218944422837,3.6842890438232,21.031277774691,4,82,6.452681069687,131.582644083031,-4.77689105428571,-5.06431962571429,-0.819989724642857,0.0742292250595229,FALSE,3.06525857,TRUE,3.0014755,1,106
"mp-4155","Ca2Nb2O7",1.44,22,3,296.359155700135,4.23556961611357,13.4708707136425,3,227,7.48360946435889,60,-8.16883953545454,-8.60602135363636,-3.25687309738636,0.0414612211363643,FALSE,2.68357398,FALSE,7.39e-05,0,109
"mp-4156","Li2ZrO3",3.7274,12,3,120.755605863568,4.21074456200037,10.0629671552973,1,15,5.24719916156248,100.902407210976,-7.2316208675,-7.5751208675,-3.04085211798611,0,TRUE,1.16113392,FALSE,1e-07,0,59
"mp-4157","Sr(NO3)2",3.7142,36,3,466.466908983423,3.01345749324511,12.9574141384284,3,205,7.75544901,90,-6.45308559888889,-6.91108559888889,-1.57301720212963,0,TRUE,-0.47649874,FALSE,0,0,61
"mp-4158","Nd2CuO4",0,7,3,95.354876049668,7.24483226451893,13.6221251499526,4,139,3.9447959345842,107.03521498596,-7.35489382285714,-7.74746525142857,-2.97285719714286,0.0004841664285768,FALSE,2.80543102,TRUE,0.2188248,1,113
"mp-4160","Tl3PSe4",1.5581,32,3,979.241758239707,6.51139373848962,30.6013049449908,7,62,9.25280106,90,-3.651646723125,-3.887646723125,-0.577036990963542,0,TRUE,2.61106963,FALSE,0,0,279
"mp-4163","Ca3Ti2O7",2.5302,24,3,287.281374407743,3.79138190530677,11.9700572669893,7,36,10.0915560275127,90,-7.8147248675,-8.2154748675,-3.51259114649305,0.0025602212500004,FALSE,2.80850779,FALSE,0,0,110
"mp-4164","Nd2Co14B",0,68,3,869.291997291159,8.59109833011144,12.783705842517,4,136,8.57694836,90,-6.92722842544118,-6.92722842544118,-0.119455733333333,0,TRUE,4.81931968,TRUE,86.4602211,64,65
"mp-4165","TaNO",1.9338,12,3,128.595791545202,10.8960743064947,10.7163159621001,1,14,4.97914291755372,90,-10.2991590783333,-10.6484924116667,-2.26817198958333,0,TRUE,4.55867999,FALSE,0,0,88
"mp-4169","USiO4",0,12,3,155.134863390648,7.06693359542926,12.927905282554,4,141,5.87726320662977,106.729031859489,-9.081214055,-9.539214055,-3.45530024083333,0.054362021666666,FALSE,7.30183775,TRUE,3.9952751,2,130
"mp-4170","NaTaO3",2.2603,5,3,61.5296549445986,6.79914945700852,12.3059309889197,3,221,3.9478540636651,90,-8.246697724,-8.658897724,-3.05482391256035,0.014600839500007,FALSE,1.87278072,FALSE,0,0,100
"mp-4171","DySi2Ni",0,8,3,128.358896389592,7.17635372130569,16.044862048699,7,63,3.94389587,103.723247308084,-6.14725318625,-6.14725318625,-0.837863291250001,0,TRUE,7.33779455,FALSE,1e-07,0,108
"mp-4172","Na5GeP3",0.946,36,3,768.634442615453,2.42402894068788,21.3509567393181,1,14,7.32421424,58.5397245520436,-3.40969481916667,-3.40969481916667,-0.35685461447318,0,TRUE,2.29068683,FALSE,0,0,106
"mp-4174","HoNiSb",0.292,3,3,62.2364271183317,9.21523272756615,20.7454757061106,3,216,4.44822329614592,60.0000002768693,-5.73444701333333,-5.79844701333333,-0.967931416666667,0,TRUE,6.53564665,FALSE,0,0,146
"mp-4175","ZnSnP2",0.7043,8,3,180.590787922776,4.52518182997454,22.573848490347,4,122,5.64750184018775,114.050540581344,-4.21506861625,-4.21506861625,-0.191088496666667,0,TRUE,4.41672018,FALSE,0,0,95
"mp-4176","La(SiPt)2",0,5,3,92.7096837560337,10.4824142050141,18.5419367512067,4,139,5.85513826744091,136.857062207282,-6.616617876,-6.588217876,-1.002435915,0.092213818999995,FALSE,8.56984563,FALSE,3.92e-05,0,149
"mp-4177","Dy(SiRu)2",0,5,3,82.484925279303,8.47152498215753,16.4969850558606,4,139,4.1629562604576,111.835055789428,-7.717227696,-7.688827696,-0.8875821,0,TRUE,6.83607036,FALSE,0,0,124
"mp-4179","YbPO4",0,12,3,143.00055854412,6.22435802243901,11.91671321201,4,141,5.72609021841665,106.194963596323,-6.9806858325,-7.4386858325,-2.98207489388889,0,TRUE,0.58431861,TRUE,1.995442,8,109
"mp-4180","Ca2SiO4",4.6781,28,3,355.316454490457,3.21977494406982,12.6898733746592,1,14,6.815574,62.6911289283896,-7.22438192214286,-7.61695335071428,-3.44220011714286,0.0351583196428579,FALSE,2.93322353,FALSE,0,0,58
"mp-4181","Pr2CuO4",0,7,3,97.6155294373059,6.96360968002514,13.9450756339008,4,139,3.96844736608577,106.95538960861,-7.32787683857143,-7.72044826714286,-2.94219497785714,0,TRUE,2.79023601,TRUE,0.2180026,1,112
"mp-4182","CrAgS2",0.7287,4,3,73.1879579479203,5.08213777614067,18.2969894869801,2,160,7.0825204269436,28.8588475934305,-5.6655732625,-5.9170732625,-0.727447460729166,0.0035696916666658,FALSE,4.18093084,TRUE,3,1,87
"mp-4185","Na3ScF6",6.8442,20,3,255.662800447299,2.96064051440318,12.783140022365,1,14,5.51805840277362,90,-5.423868744,-5.701068744,-3.52417686496552,0,TRUE,-2.43714118,FALSE,0,0,88
"mp-4187","Ge2N2O",2.6165,10,3,138.241180217757,4.5475319138765,13.8241180217757,7,36,5.12683769,116.558347399812,-6.71024335,-6.99204335,-0.81889649575,0,TRUE,2.52428972,FALSE,0,0,47
"mp-4189","Dy6FeSb2",0,9,3,242.810449526573,8.71516391380067,26.9789388362859,6,189,8.22743053013035,90,-5.47979802333333,-5.52246469,-0.592604164444445,0.0074539263888881,FALSE,4.69870059,TRUE,0.476946,7,407
"mp-4190","CaSnO3",2.9379,10,3,134.533909393024,5.10468424032232,13.4533909393024,2,148,6.0158416268049,54.5888676677413,-6.439295226,-6.851495226,-2.68044765225,0,TRUE,3.32492269,FALSE,0,0,86
"mp-4192","Ca3AsN",0.894,20,3,430.209581051013,3.22932994250283,21.5104790525507,7,62,6.72350532,90,-4.896160585,-4.968360585,-1.165877991,0,TRUE,3.51863597,FALSE,0,0,80
"mp-4193","Tm9(FeGe)10",0,29,3,501.521595777135,9.2882148195726,17.293848130246,7,71,10.0227683766927,148.81142862098,-6.45187308310345,-6.45187308310345,-0.547976205172413,0,TRUE,5.42501249,TRUE,23.0093803,19,578
"mp-4194","Zn(CrS2)2",0.0344000000000006,14,3,250.216142096215,3.95080866542153,17.8725815783011,3,227,7.07310476149331,60.0000022712831,-6.06237438142857,-6.34980295285714,-1.04814037892857,0,TRUE,4.26717719,TRUE,11.9993711,4,70
"mp-4195","Tm(NiGe)2",0,5,3,77.6513343472669,9.22959462723312,15.5302668694534,4,139,4.00779129598994,110.952748781456,-5.723722086,-5.723722086,-0.667289187333333,0,TRUE,6.48474371,FALSE,3e-07,0,129
"mp-4196","NdFeSi2",0,8,3,138.031749099826,6.16563106537234,17.2539686374782,7,63,4.00567211,103.659823725866,-6.67545228375,-6.63995228375,-0.617751108125001,0,TRUE,6.38163992,FALSE,0.0080598,0,100
"mp-4198","Ag3PO4",0.1785,16,3,217.530968056921,6.39046241047206,13.5956855035576,3,218,6.01414227,90,-5.282426915625,-5.625926915625,-1.41371124541667,0.000441591875,FALSE,2.1094709,FALSE,0,0,133
"mp-4199","Na2S2O3",4.0764,28,3,459.63115765279,2.28482401368436,16.4153984875996,1,14,8.242099,82.6633222128539,-5.12380911571429,-5.41823768714286,-1.73852105080049,0.133245001428573,FALSE,0.86120194,FALSE,0.000695,0,43
"mp-4200","ScPO4",4.2277,12,3,125.882046874277,3.69162578349085,10.4901705728564,4,141,5.48776414710723,106.203932869359,-8.15294656583333,-8.61094656583333,-3.35552548972222,0,TRUE,3.15852721,FALSE,0,0,60
"mp-4202","BaAl2O4",4.4324,56,3,837.668925808653,4.04852225647921,14.9583736751545,6,173,10.4804176800132,90.0000504610195,-7.2272895925,-7.61986102107143,-3.4488779575,0,TRUE,1.64384322,FALSE,0,0,93
"mp-4206","UAs2Pd",0,8,3,154.361708831041,10.6346498128698,19.2952136038801,4,129,3.97923544,90,-7.1038723075,-7.1038723075,-0.656490149999999,0,TRUE,8.40145724,TRUE,3.3677893,2,171
"mp-4207","USb2Pd",0,8,3,189.190818979971,10.3212761619747,23.6488523724963,4,129,4.43650111,90,-6.62304563,-6.71904563,-0.536722054999999,0,TRUE,9.29595662,TRUE,4.5427169,2,189
"mp-4208","Ca2RuO4",0,14,3,179.568702274763,4.53534900786017,12.8263358767688,7,64,6.84592589980968,90,-6.83602075428571,-7.22859218285714,-2.50396973357143,0.0318261282142939,FALSE,4.34626729,TRUE,3.2060221,2,88
"mp-4210","Sm2CuO4",0,7,3,91.6538343901094,7.75906914680591,13.0934049128728,4,139,3.90716239451786,107.193172443604,-7.38849853714286,-7.78106996571429,-3.02062228214286,0.0080122030357099,FALSE,2.86309796,TRUE,0.2206753,1,115
"mp-4212","Nb3Co4B7",0,28,3,259.124144232133,7.56341813607772,9.25443372257618,7,63,9.30155421237158,90,-8.12180940035714,-8.12180940035714,-0.586600207797618,0,TRUE,7.10167693,TRUE,2.5281893,6,193
"mp-4214","Lu2Fe14B",0,68,3,891.327558952155,8.51444748887132,13.1077582198846,4,136,8.700447,90,-8.02492387691176,-8.02492387691176,-0.124830362156862,0,TRUE,4.50621888,TRUE,123.1107893,64,76
"mp-4219","CeGeAu",0,6,3,134.259463638856,10.1350074527679,22.3765772731427,6,186,4.37270946,90,-5.35651053166667,-5.35651053166667,-0.746510861666666,0,TRUE,6.8453531,TRUE,2.0257168,2,169
"mp-4223","Na3PO4",4.1727,64,3,823.59347659801,2.64431319197314,12.8686480718439,4,114,10.943029,90,-5.82354956703125,-6.16704956703125,-2.52109541302981,0.0050211510937501,FALSE,1.12026209,FALSE,0.0001857,0,61
"mp-4226","LiCrS2",0.6463,4,3,63.1431755522669,3.23641827601799,15.7857938880667,2,164,3.49430367,90,-5.960372165,-6.211872165,-1.25315464739583,0,TRUE,4.45716663,TRUE,2.9999996,1,43
"mp-4227","BaVS3",0,10,3,226.60022021534,4.16912882364262,22.660022021534,6,194,6.7286395315507,90.0531851250076,-6.036542442,-6.338342442,-1.655896319875,0.0142068999999889,FALSE,4.1143947,TRUE,1.9940705,2,111
"mp-4228","Nd(CoSi)2",0,5,3,76.5388545696712,6.90519036586215,15.3077709139342,4,139,3.91785377073172,110.084990591005,-6.728769388,-6.700369388,-0.7332855715,0,TRUE,6.46935407,FALSE,0.0001898,0,101
"mp-4229","Nd(AgGe)2",0,5,3,101.466791807703,8.26872809300858,20.2933583615407,4,139,4.28129338692136,109.84265110455,-4.35953804,-4.35953804,-0.423675010166666,0,TRUE,5.06896887,FALSE,0,0,139
"mp-4230","Sc3TlC",0,5,3,93.8371234317031,6.21591768692978,18.7674246863406,3,221,4.54420828,90,-6.73937792,-6.73937792,-0.621634729166667,0,TRUE,5.4982611,FALSE,7.4e-06,0,129
"mp-4233","KMnSb",0,6,3,180.916459669879,3.9613671631189,30.1527432783132,4,129,4.669289,90,-4.94083973333333,-5.00483973333333,-0.204367906977011,0.146988544439657,FALSE,3.35644078,TRUE,8.9985824,2,95
"mp-4236","BaZnO2",2.2724,12,3,204.24457974584,5.72528739086614,17.0203816454867,2,152,5.90980663,90,-5.29058417666667,-5.63408417666667,-2.36606018354167,0,TRUE,1.16992688,FALSE,0,0,94
"mp-4238","MnFeAs",0,9,3,117.655024127493,7.86289799755844,13.0727804586103,6,189,6.38788785938487,90.0000022989819,-7.62926090333333,-7.62926090333333,-0.198875934310345,0,TRUE,7.25146101,TRUE,14.4168722,6,84
"mp-4240","RbCeTe2",0,4,3,162.989419648902,4.89823378847634,40.7473549122255,2,166,8.91125192776241,30.642651514847,-4.6597064375,-4.8707064375,-1.57064768395833,0,TRUE,4.20754355,TRUE,0.9999999,1,147
"mp-4242","U3(CuGe)4",0,11,3,198.313673554334,10.5405621707113,18.0285157776667,7,71,7.99377470226474,148.281779515781,-6.43618571909091,-6.43618571909091,-0.184988616363637,0,TRUE,9.13148224,TRUE,8.0602078,3,309
"mp-4243","CaIrO3",0,10,3,114.218721867935,8.14993901333421,11.4218721867935,7,63,3.18200162149774,89.9999535946144,-6.827332932,-7.239532932,-2.10271289325,0,TRUE,5.1646301,TRUE,2.0033388,2,113
"mp-4246","Li2TbF6",0.3233,36,3,385.673743413607,4.93929294491379,10.7131595392669,1,14,4.24796024,104.411091929893,-5.29469510194444,-5.60269510194444,-3.38924114212963,0.0034755066666676,FALSE,-1.81896061,TRUE,4.0000003,8,113
"mp-4247","NaZnSb",0,6,3,145.325462294647,4.80269377530644,24.2209103824412,4,129,4.43011462,90,-2.54065999833333,-2.60465999833333,-0.367569950517241,0,TRUE,3.59525609,FALSE,0,0,92
"mp-4248","YCoC2",0,4,3,47.7312844945187,5.97890850723979,11.9328211236297,7,38,3.5747575,106.201592373257,-8.344385965,-8.344385965,-0.336355991666668,0,TRUE,5.59289661,FALSE,2.2e-06,0,72
"mp-4249","Hg(CO2)2",2.4575,14,3,175.435626218745,5.46350282210984,12.5311161584818,1,14,5.350504,71.2820210946738,-6.38162173285714,-6.77419316142857,-1.26736941928571,0.250068236428569,FALSE,0.33494251,FALSE,0,0,94
"mp-4250","Tb(SiPd)2",0,5,3,85.0449828653158,8.35563725515218,17.0089965730632,4,139,4.1384386150101,111.039083750175,-6.120144508,-6.091744508,-0.922791351999999,0,TRUE,6.17288868,FALSE,7e-07,0,125
"mp-4251","Pr(Sb3Os)4",0,17,3,410.913285814074,9.54889272412344,24.171369753769,3,204,8.11192698850306,109.471221518957,-6.00525223529412,-6.00525223529412,-0.167699861470588,0.0086126564705901,FALSE,7.33452506,FALSE,6.2e-06,0,389
"mp-4252","SnPS3",1.8226,20,3,484.469985069327,3.37103475989182,24.2234992534663,1,14,7.731397,55.9407122829878,-4.708187266,-5.009987266,-0.643542473541667,0.0070361819999993,FALSE,3.85041273,FALSE,0.0043895,0,97
"mp-4253","V(CrC)2",0,10,3,92.761078589169,6.40703922888639,9.2761078589169,7,63,4.80571871185622,90,-9.548593489,-9.548593489,-0.17912709,0.0829642758472335,FALSE,8.03682169,FALSE,1.83e-05,0,53
"mp-4255","Ba(CuS)2",0.5012,5,3,96.2992495002783,5.66534477291837,19.2598499000556,4,139,3.90192973199837,106.422750869696,-4.588947208,-4.790147208,-1.11208960525,0.0148710410000001,FALSE,5.45992284,FALSE,0,0,101
"mp-4259","Ca(CoGe)2",0,5,3,79.79428534074,6.31017551433446,15.958857068148,4,139,3.94059297697673,109.698004253624,-5.567368588,-5.567368588,-0.473710352,0,TRUE,5.5089347,FALSE,0,0,79
"mp-4262","BeAlB",0,3,3,30.2724121284241,2.56738930244088,10.090804042808,3,216,3.49827473317834,60.0000076132626,-4.77385932666667,-4.77385932666667,-0.0523991713888888,0,TRUE,7.38446061,FALSE,4e-07,0,22
"mp-4264","K2S2O5",3.1872,18,3,338.23402215243,2.18296799877085,18.7907790084683,1,11,6.229082,78.4366039042805,-5.51455959222222,-5.89622625888889,-1.98209946066667,0.0753344638011679,FALSE,0.2926024,FALSE,0.0005891,0,67