"material_id","formula_pretty","band_gap","nsites","nelements","volume","density","density_atomic","crystal_symmetry","symmetry_number","sides_abc","angles_abc","uncorrected_energy_per_atom","energy_per_atom","formation_energy_per_atom","energy_above_hull","is_stable","efermi","is_magnetic","total_magnetization","num_magnetic_sites","atomic_number"
"mp-2889","LaPd3S4",0,16,3,309.605234448239,6.29047764208307,19.3503271530149,3,223,6.7650254,90,-5.596231454375,-5.847731454375,-1.2200499540625,0,TRUE,5.57173332,FALSE,0.001993,0,197
"mp-2892","BaNd2O4",3.0973,28,3,483.436520170419,6.72970519620599,17.2655900060864,7,62,3.61864619,90,-7.58471902178571,-7.97729045035714,-3.51414407178571,0,TRUE,1.83784295,FALSE,0,0,140
"mp-2893","Dy(SiRh)2",0,5,3,80.9775285154024,8.70450058171917,16.1955057030805,4,139,4.03660046302979,110.6199368502,-7.15759602,-7.15759602,-1.120388292,0,TRUE,7.11560753,FALSE,5e-07,0,125
"mp-2894","ScSnAu",0.1225,3,3,67.7719870684487,8.83616298251014,22.5906623561496,3,216,4.57637619948912,59.9999968932427,-5.29947214666667,-5.29947214666667,-0.76083116,0,TRUE,6.13418406,FALSE,0,0,150
"mp-2895","Mg2SiO4",4.6395,28,3,288.811804587076,3.23569030407305,10.3147073066813,7,62,4.75094062,90,-6.88885457142857,-7.281426,-3.22247843214286,0,TRUE,3.11609556,FALSE,0,0,50
"mp-2896","Pr(GeRh)2",0,5,3,91.3816744150656,8.94033715478481,18.2763348830131,4,139,4.17063596036689,110.25066197981,-6.640151302,-6.640151302,-0.889035860999999,0,TRUE,6.2808024,FALSE,4.6e-06,0,136
"mp-2898","Ca(AuO2)2",1.6618,14,3,182.798431699095,9.04781247049679,13.0570308356496,4,88,6.01792610229482,117.114578945947,-5.122959865,-5.51553129357143,-1.46694290428571,0,TRUE,2.47158167,FALSE,0,0,107
"mp-2903","UAl3Ni2",0,6,3,92.5097338763664,7.83261758242196,15.4182889793944,6,191,5.14723005272243,90,-6.08716198666667,-6.08716198666667,-0.405760176666668,0.105258914999998,FALSE,8.98773434,FALSE,0.0881673,0,146
"mp-2906","Ho(NiP)2",0,5,3,68.6784319984875,8.32379065706874,13.7356863996975,4,139,3.84564480272057,110.934740151448,-6.405125864,-6.405125864,-1.01126841533333,0,TRUE,8.65293958,FALSE,1.39e-05,0,110
"mp-2908","Al2ZnO4",3.846,14,3,131.64714277395,4.62588866274558,9.4033673409964,3,227,5.71007909706836,60.0000048806303,-6.70603538428571,-7.09860681285714,-3.02179965357143,0,TRUE,4.08233728,FALSE,0,0,67
"mp-2909","HoAlNi",0,9,3,158.489242171277,7.87699814510398,17.6099157968086,6,189,6.88301021,90,-5.31907031777778,-5.31907031777778,-0.616363191111111,0,TRUE,5.72146062,FALSE,4.6e-06,0,108
"mp-2910","KAlF4",6.9377,12,3,155.402054935588,3.03623419232367,12.9501712446323,4,127,5.01874923,90,-5.4158315075,-5.7238315075,-3.64018306633333,0.013148547500001,FALSE,-1.55703786,FALSE,0,0,59
"mp-2911","Ba3(SnP2)2",0.7534,36,3,1134.62301074489,4.52692492780797,31.5173058540246,1,14,7.95098669460076,90,-4.70088039972222,-4.70088039972222,-0.764293893425926,0.0005855680555555,FALSE,3.48325721,FALSE,0,0,177
"mp-2914","LaSi3Ir",0,5,3,90.7778975153255,7.59824831823872,18.1555795030651,4,107,4.28782048458665,111.716612513862,-6.87115201,-6.87115201,-0.861072935,0,TRUE,9.45710192,FALSE,1e-06,0,162
"mp-2917","Dy(CuSi)2",0,5,3,77.3595190281104,7.4218787357789,15.4719038056221,4,139,3.94749568405165,110.276690158044,-5.326809578,-5.298409578,-0.567242330000001,0,TRUE,7.32313287,FALSE,4e-07,0,109
"mp-2918","YCuO2",2.647,8,3,122.485608801099,5.00119994802224,15.3107011001373,6,194,3.53175348,90,-7.49509662,-7.83859662,-2.72383281854167,0.00031791609375,FALSE,2.41703142,FALSE,0,0,76
"mp-2920","LaAlO3",4.0189,10,3,108.695363450958,6.53504866025744,10.8695363450958,2,167,5.35090684993594,60.1470270331923,-8.015086556,-8.427286556,-3.72295674225,0,TRUE,7.67988623,FALSE,0,0,86
"mp-2921","Gd3Ga5O12",2.9042,80,3,988.694898665722,6.80112612514084,12.3586862333215,3,230,10.8699628889214,109.471220634491,-8.3578488605,-8.7700488605,-2.933593292125,0,TRUE,5.35452276,TRUE,84.0005832,12,252
"mp-2923","Ca2Os2O7",0,22,3,272.494254912878,6.97882063018283,12.3861024960399,7,74,7.25656303763839,120.421037595561,-7.35465103363636,-7.79183285181818,-2.23794597920454,0,TRUE,4.23229296,TRUE,0.2690319,4,144
"mp-2924","Ho(SiNi)2",0,5,3,73.0517098375507,7.69417646883149,14.6103419675101,4,139,3.92810981378549,110.966057869662,-6.256353828,-6.227953828,-0.829290170000001,0,TRUE,7.15430255,FALSE,3e-07,0,109
"mp-2926","Pr2MgNi2",0,10,3,220.968888068835,6.36515023158735,22.0968888068835,4,127,3.89461476,90,-4.824639443,-4.824639443,-0.280166459,0,TRUE,4.51538359,FALSE,1.1e-06,0,99
"mp-2927","LiAg2Sn",0,4,3,72.5753741818673,7.81101194358893,18.1438435454668,3,225,4.68203629425481,60.0000056122154,-3.1315659025,-3.1315659025,-0.235664220416667,0,TRUE,5.65536966,FALSE,1.1e-06,0,100
"mp-2928","FePSe3",0.0015,10,3,208.963155674079,5.14458578477271,20.8963155674079,2,148,7.27644260221552,50.1379748644572,-5.006659963,-5.289859963,-0.415648333072917,0.111388732999998,FALSE,4.5052569,FALSE,0.0003489,0,109
"mp-2929","BaTbO3",0,5,3,88.2184108568029,6.47984339574458,17.6436821713606,3,221,4.451637,90,-6.962625732,-7.374825732,-3.09614429725,0.120442663750008,FALSE,1.37384969,TRUE,0.9997735,4,137
"mp-2930","Mn3ZnC",0,5,3,58.2097403993195,6.91016217407046,11.6419480798639,3,221,3.875537,90,-7.62638847,-7.62638847,-0.0314974742586215,0.0424864600183942,FALSE,5.18388028,TRUE,6.9852646,3,86
"mp-2931","Li2TiO3",3.0338,24,3,210.496701896451,3.46303787960749,8.7706959123521,1,15,5.05360597947354,84.9087857603923,-7.06465786416667,-7.40815786416667,-2.98259055020833,0,TRUE,1.94520889,FALSE,0,0,41
"mp-2932","Y2Si4Mo3",0,18,3,301.896680120981,6.35812164567522,16.7720377844989,1,14,6.73732046340279,90,-8.137367235,-8.10581167944444,-0.642348937592592,0,TRUE,7.65666611,FALSE,1e-07,0,165
"mp-2933","Pr2(ReB2)3",0,22,3,277.377425132396,10.8393091868618,12.6080647787453,1,15,6.33044842907614,89.4421596740742,-8.32941744090909,-8.32941744090909,-0.422895287272726,0,TRUE,6.40394538,FALSE,4e-06,0,139
"mp-2935","Li2GeAu",0,4,3,58.6721833379493,8.02328832809178,14.6680458344873,3,216,4.36163289164177,59.999990022051,-3.4137790125,-3.4137790125,-0.485090115416666,0,TRUE,3.22440307,FALSE,1e-07,0,114
"mp-2938","Tm(FeSi)2",0,5,3,72.485752201463,7.71546940831033,14.4971504402926,4,139,3.85250990447416,110.148281568362,-7.132994238,-7.104594238,-0.651291457333333,0,TRUE,6.36490269,TRUE,1.9865519,2,109
"mp-2939","BaTbO3",0,10,3,173.929780741305,6.57324449599313,17.3929780741305,4,140,6.28436239876473,120.579800935316,-6.985671111,-7.397871111,-3.11918967625,0.0973972847500075,FALSE,1.15248704,TRUE,2.0056567,6,137
"mp-2940","LuPO4",5.9556,12,3,134.093921851999,6.68551101323957,11.1744934876666,4,141,5.60518000704563,106.157821380278,-8.01642476666667,-8.47442476666667,-3.52092345472222,0,TRUE,2.23666811,FALSE,1.1e-06,0,110
"mp-2943","KY3F10",6.9409,28,3,383.252685615718,4.29635644668216,13.6875959148471,3,225,8.1533074966857,59.9999259826976,-6.76590711535714,-7.09590711535714,-4.26557840378571,0,TRUE,-1.3449586,FALSE,0,0,97
"mp-2945","Yb(Mo3S4)2",0,15,3,276.285996708336,6.04147111917655,18.4190664472224,2,148,6.5132971500493,89.5290582103976,-7.535856304,-7.80412297066667,-1.157115779,0.0171089303333449,FALSE,5.71440531,FALSE,1.13e-05,0,202
"mp-2947","SmB2Rh3",0,6,3,79.9100985049252,9.98895825984775,13.3183497508209,6,191,5.41118754,90,-7.37069304166667,-7.37069304166667,-0.675644160555557,0,TRUE,6.05501445,FALSE,0,0,157
"mp-2948","Si2N2O",4.1974,40,3,352.180957163975,3.77894625717618,8.80452392909937,2,164,5.49281359966866,90,-7.93953363625,-8.22133363625,-1.727270712,0.19251885575,FALSE,7.66496312,FALSE,0.0075133,0,29
"mp-2949","Ca(NiGe)2",0,5,3,81.9404477061715,6.13518209483911,16.3880895412343,4,139,4.05287026273616,110.62393215042,-5.109067938,-5.109067938,-0.546682147999999,0,TRUE,5.9319642,FALSE,0.0011404,0,80
"mp-2951","CdGeO3",1.5369,20,3,261.903462987766,5.91038081933195,13.0951731493883,1,15,7.04561340975085,81.3832171348709,-5.5302255485,-5.9424255485,-1.86522879875,0.0012225431250074,FALSE,1.41061748,FALSE,0,0,96
"mp-2954","Dy(SiAu)2",0,5,3,91.3477393844481,11.1360512078858,18.2695478768896,4,139,4.23846982921739,111.041682179032,-4.9528188,-4.9244188,-0.52338142,0,TRUE,6.95819223,FALSE,2e-07,0,159
"mp-2955","NaMgF3",6.594,20,3,220.219135096362,3.14555016500907,11.0109567548181,7,62,5.29698319,90,-4.9541661745,-5.2313661745,-3.49991772531034,0,TRUE,-1.42999329,FALSE,0,0,41
"mp-2956","Co2(GeS)3",0,32,3,511.419646220125,5.61043737322849,15.9818639443789,2,148,7.99698448218389,89.917156860189,-5.4826952821875,-5.6713202821875,-0.609436687734375,0,TRUE,5.91787194,FALSE,0,0,91
"mp-2958","Dy(BC)2",0,10,3,101.483047834991,6.81158586637909,10.1483047834991,4,127,3.57203823,90,-7.730670442,-7.730670442,-0.446090168666667,0,TRUE,6.32878288,FALSE,0,0,77
"mp-2959","Yb2CdS4",0,14,3,365.292547910387,5.33448034152416,26.0923248507419,3,227,8.02389561372791,60,-3.98103922428571,-4.26846779571429,-1.33305268321429,0.381487129285715,FALSE,0.44620232,FALSE,0.0178632,0,166
"mp-2960","HfSnRh",0,18,3,335.022363031035,11.8987426540833,18.6123535017242,6,190,7.3254147,90,-7.83768832888889,-7.83768832888889,-0.727332077222223,0,TRUE,8.03062976,FALSE,2e-07,0,167
"mp-2961","MgSiP2",1.3728,8,3,166.443855129554,2.28140300526044,20.8054818911942,4,122,5.71725605041923,116.082958416068,-4.882946115,-4.882946115,-0.419895341666667,0,TRUE,4.14841178,FALSE,0,0,41
"mp-2963","CaAl2O4",4.4681,84,3,1071.1794954786,2.93989269173379,12.7521368509358,1,14,8.10965035,90.2060045088484,-7.24592161130952,-7.63849303988095,-3.45513498488095,0.0007486029761913,FALSE,1.97497557,FALSE,0,0,57
"mp-2965","Ce(MnSi)2",0,5,3,88.9907846541729,5.71290357391104,17.7981569308346,4,139,4.11228068098848,109.998104594816,-7.607026278,-7.578626278,-0.557075118172412,0,TRUE,7.69178472,TRUE,6.2957993,3,97
"mp-2967","La(CoB)2",0,5,3,65.8357310900197,7.02177788227904,13.1671462180039,4,139,3.58450376464034,108.276169039325,-6.981917822,-6.981917822,-0.479632574666667,0,TRUE,7.43778271,FALSE,7.3e-06,0,89
"mp-2968","Sr(MnSb)2",0,5,3,141.839036480581,5.16306698504994,28.3678072961162,2,164,4.55451551680747,90,-5.85475306,-5.93155306,-0.277247756505747,0.205474893995689,FALSE,3.93152889,TRUE,9.0054098,2,114
"mp-2969","CsSbSe2",1.1312,16,3,591.159648971551,4.63573088848448,36.9474780607219,1,14,10.26036463,77.6883549278197,-3.710064469375,-3.946064469375,-0.942007827529634,0,TRUE,1.91245368,FALSE,0,0,140
"mp-2970","Na4GeO4",2.8173,18,3,240.611814708318,3.15523752075823,13.367323039351,5,2,5.65762611618719,81.3522474401402,-5.01278678666667,-5.31812012,-2.01813302291188,0,TRUE,0.54023943,FALSE,0,0,89
"mp-2971","U(CrC)4",0,9,3,96.4968954420398,8.50182244712934,10.7218772713378,4,87,5.77201482472711,94.203814384374,-9.81509464888889,-9.81509464888889,-0.168621108888889,0,TRUE,8.79325192,TRUE,2.7678641,5,134
"mp-2973","Pr3Sb5O12",3.1711,40,3,678.952824094268,5.98479196013569,16.9738206023567,3,217,9.5900417224565,109.471220634491,-6.89813097425,-7.31033097425,-2.59293157425,0,TRUE,3.46817248,FALSE,0,0,322
"mp-2976","PrBPd3",0,5,3,85.0430595621153,9.19626424409507,17.0086119124231,3,221,4.397572,90,-5.939519366,-5.939519366,-0.539530774833333,0.110912752933332,FALSE,5.14670399,FALSE,3.83e-05,0,156
"mp-2977","CuAgTe2",0,4,3,102.848454542918,6.88789684409593,25.7121136357294,7,25,3.149479,90,-3.3069196875,-3.5179196875,-0.2133260725,0.0536118909374998,FALSE,5.30620396,FALSE,3.1e-06,0,128
"mp-2979","ZnGeN2",1.6955,16,3,182.235382257312,6.05267976564505,11.389711391082,7,33,5.19331949,90,-5.831763571875,-6.012263571875,-0.373323243125,0,TRUE,4.156138,FALSE,0,0,69
"mp-2980","Pr2Te4O11",3.3043,34,3,529.646868805325,6.07102001602859,15.5778490825096,1,15,6.87977154857834,75.6420782794777,-6.32584473764706,-6.77037414941177,-2.26751468428922,0,TRUE,3.40975975,FALSE,0,0,215
"mp-2981","CaTeO3",2.9425,90,3,1546.91306390964,4.16733024980231,17.1879229323294,5,2,10.598158,103.346003528125,-5.98589429644444,-6.39809429644444,-2.40029991502778,0.011534739155544,FALSE,2.55318209,FALSE,0.0016406,0,88
"mp-2983","Ba(PN2)2",3.8113,84,3,1083.15183907236,4.69671350180905,12.8946647508614,3,205,10.26982667,90,-7.41784275130952,-7.62412846559524,-1.03961994369047,0,TRUE,4.76359507,FALSE,0,0,78
"mp-2985","HoB2Ru3",0,6,3,78.0875976008067,10.4148352708478,13.0145996001344,6,191,5.46458889,90,-8.10514286,-8.10514286,-0.477742854722222,0,TRUE,6.50708081,FALSE,1.24e-05,0,160
"mp-2987","Li2MgTl",0,4,3,73.5944672376427,5.47320300921828,18.3986168094107,3,225,4.70384927544626,60.0000003071364,-2.1411877125,-2.1411877125,-0.19599548,0.0166732175000001,FALSE,4.25051646,FALSE,1.6e-06,0,96
"mp-2988","Li2GaRh",0,4,3,52.489890569271,5.90033563077022,13.1224726423177,3,216,4.20271812558676,59.9999942818499,-4.0396674475,-4.0396674475,-0.487105041041667,0,TRUE,3.1501305,FALSE,7.5e-06,0,79
"mp-2990","TmAgSn",0,9,3,205.342386486081,9.5951520682453,22.8158207206757,6,189,7.30444176,90,-4.31362339777778,-4.31362339777778,-0.540968970555556,0.0117852305555548,FALSE,5.63831357,FALSE,0,0,166
"mp-2991","Cs2UO4",1.8211,7,3,144.212247914688,6.5383920071048,20.6017497020982,4,139,4.39260596258261,105.745013238289,-7.32613134571429,-7.71870277428571,-3.02313568869458,0,TRUE,2.41630776,FALSE,0,0,171
"mp-2994","Co2(GeTe)3",0.4741,32,3,660.891940450171,7.22200226868725,20.6528731390679,2,148,8.71050792792797,89.9934887016467,-4.91096974375,-5.06921974375,-0.379765139374999,0,TRUE,6.54426693,FALSE,0,0,163
"mp-2995","La2Fe2S5",0,18,3,371.349465535831,4.91724124004144,20.6305258631017,7,36,8.51545438083864,90,-6.58828158777778,-6.86772603222222,-1.59058092506944,0.132028442222223,FALSE,6.77194915,TRUE,15.9978621,4,147
"mp-2997","ThB2C",0,12,3,148.882872608777,8.88933699565063,12.4069060507314,2,166,5.4428991820488,75.9886300657231,-8.02379672583333,-8.02379672583333,-0.523469904791667,0,TRUE,8.38784042,FALSE,3e-07,0,101
"mp-2998","BaTiO3",1.6663,10,3,128.738833485449,6.01566361357729,12.8738833485449,3,221,5.66640803527935,119.988535629687,-7.996968392,-8.409168392,-3.47826177391667,0.0147385900000003,FALSE,3.0411464,FALSE,0,0,94
"mp-3000","Cr3GaN",0,5,3,56.1467769697698,7.08965189901355,11.229355393954,3,221,3.829202,90,-8.313173256,-8.385373256,-0.320626584499999,0.0221255208333346,FALSE,6.8482817,TRUE,0.3719384,3,86
"mp-3006","P2Pd3S8",1.5779,13,3,315.603041370678,3.35539056546771,24.2771570285137,2,164,7.05164123,90,-4.90002408153846,-5.20956254307692,-0.635881821666667,0,TRUE,1.13816163,FALSE,2e-07,0,219
"mp-3009","Rb2BeF4",6.7271,28,3,453.58440397509,3.74793031771731,16.1994429991104,7,62,5.83217377,90,-4.95304701178571,-5.21704701178571,-3.31041888607143,0,TRUE,-2.65525337,FALSE,0,0,68
"mp-3010","Rb2TbF6",0.0369999999999999,18,3,306.931121211383,4.80259242146323,17.051728956188,1,15,6.84433976963266,88.9975085424882,-5.06143798055556,-5.36943798055556,-3.36229264166667,0.0131266549999997,FALSE,-2.70265912,TRUE,1.9819297,4,147
"mp-3011","Th(GeRh)2",0,5,3,90.6597186237326,10.6806925909238,18.1319437247465,4,139,4.1758230684001,110.438493403995,-7.14964294,-7.14964294,-0.871937,0,TRUE,7.72667266,FALSE,0.0027874,0,167
"mp-3015","HoInCu",0,9,3,185.087731434091,9.23973121208534,20.5653034926768,6,189,7.39629903,90,-4.22375418666667,-4.22375418666667,-0.41265443,0,TRUE,6.34908191,FALSE,0.000147,0,145
"mp-3017","Na6CoSe4",0,22,3,542.943767361546,3.13615531744167,24.6792621527975,6,186,9.32632132807368,90,-3.51324886454545,-3.68488522818182,-1.04605654942594,0.0450857951515168,FALSE,1.82490641,TRUE,5.9995486,2,184
"mp-3018","Nd(MnSi)2",0,5,3,83.7344890388604,6.15334447966407,16.7468978077721,4,139,3.95950365273103,109.165488639452,-7.362427272,-7.334027272,-0.545464456672413,0,TRUE,6.2500818,TRUE,4.7144675,3,99
"mp-3019","Tl4SnTe3",0.0052000000000003,16,3,534.142272517129,8.2012709977484,33.3838920323206,4,140,9.19877092227136,121.846725282055,-3.152486736875,-3.310736736875,-0.449478971666666,0.0054702290340915,FALSE,5.37275858,FALSE,0.0377642,0,397
"mp-3020","BaNbO3",0,5,3,70.6279794174536,6.54152096608996,14.1255958834907,3,221,4.13357283,90,-8.13938716,-8.55158716,-3.17951793725,0,TRUE,4.78470394,FALSE,8e-07,0,113
"mp-3021","Tl(FeSe)2",0,5,3,105.487380805807,7.46140804657583,21.0974761611613,4,139,8.1274956463674,153.666245774551,-5.486492386,-5.675292386,-0.416390681604166,0.0316996827000002,FALSE,5.02928264,TRUE,5.7535461,2,141
"mp-3022","TbBPd3",0,5,3,81.0538877914589,10.0179962334314,16.2107775582918,3,221,4.327708,90,-5.989051826,-5.989051826,-0.618371165833333,0.112749955090911,FALSE,5.16835018,FALSE,0,0,162
"mp-3031","BaSi2O5",4.7582,32,3,486.958114772914,3.73049852332004,15.2174410866536,7,62,4.63950283,90,-7.6200233803125,-8.0493983803125,-3.36151656078125,0,TRUE,1.06638033,FALSE,0,0,102
"mp-3032","RbBF4",7.737,24,3,358.236582177849,3.19414694962474,14.9265242574104,7,62,5.50237138,90,-5.552751735,-5.860751735,-3.30977811611111,0,TRUE,-3.77526896,FALSE,0,0,69
"mp-3033","RbTaO3",3.5412,20,3,333.986473876849,6.25290629001697,16.6993236938425,1,12,6.43027102292945,86.2477094907622,-8.1584009055,-8.5706009055,-3.03492533825,0,TRUE,0.44919278,FALSE,0,0,126
"mp-3034","MgAl2Cu",0,8,3,129.349627718761,3.64110542160105,16.1687034648451,7,63,3.98317563,90,-3.480066995,-3.480066995,-0.1824074,0,TRUE,6.38939331,FALSE,0,0,54
"mp-3035","Ce(FeSi)2",0,5,3,75.3195420718884,6.78984266295933,15.0639084143777,4,139,4.00041493639767,111.362059011483,-7.402376186,-7.373976186,-0.629222658999998,0,TRUE,8.03575864,FALSE,0.0012648,0,98
"mp-3037","UTeO",0,6,3,135.06294681652,9.3839018415082,22.5104911360867,4,129,3.92559589,90,-8.49085855833333,-8.860525225,-2.40005702013889,0,TRUE,9.6708673,TRUE,4.0000003,2,152
"mp-3038","Al2HgSe4",1.4254,7,3,183.204256567802,5.16996714897972,26.1720366525432,4,82,5.81371898038272,115.296015850751,-3.80105760142857,-4.07077188714286,-0.959560753482143,0,TRUE,1.64730415,FALSE,0,0,195
"mp-3040","TbCo3B2",0,6,3,64.3468201459452,9.22172291577742,10.7244700243242,6,191,5.03689182004623,90,-7.03706619166667,-7.03706619166667,-0.484049020555555,0,TRUE,5.54043753,TRUE,0.8768882,4,124
"mp-3041","Er2CdS4",1.1479,14,3,346.867446605154,5.50714005898526,24.7762461860824,3,227,7.88665537241417,60.0000027809116,-5.47163802785714,-5.75906659928572,-1.95847704964286,0,TRUE,1.88588945,FALSE,0,0,164
"mp-3042","K2SiF6",7.2234,9,3,127.128804716619,2.8771695308969,14.125422746291,3,225,5.64399098956331,60.0000022993385,-5.24780554222222,-5.55580554222222,-3.43191779455556,0,TRUE,-2.59123063,FALSE,0,0,78
"mp-3043","Sr(Mo3S4)2",0,15,3,291.343545741088,5.24236985855407,19.4229030494059,2,148,6.62925886691798,89.3276920546927,-7.54924472466667,-7.81751139133333,-1.16051185477778,0.0001213053333319,FALSE,5.55117217,TRUE,1.7002584,6,170
"mp-3045","ErFe4B",0,12,3,154.289189912271,8.64121988929509,12.8574324926892,6,191,5.03569491000011,90,-7.77141118166667,-7.77141118166667,-0.25021194486111,0,TRUE,4.96793269,TRUE,16.6391579,12,151
"mp-3046","Yb3Sn13Rh4",0,40,3,911.809912710194,9.0109289193048,22.7952478177548,3,223,9.69694125003018,90.0001774366835,-4.840820935,-4.840820935,-0.53079641325,0,TRUE,7.35116175,FALSE,1.3e-06,0,275
"mp-3047","MgGeO3",2.4744,10,3,94.995142397062,5.06728744154103,9.4995142397062,7,63,4.9512344444925,90,-6.204596403,-6.616796403,-2.40412159525,0.156689857000003,FALSE,4.09114732,FALSE,8.67e-05,0,60
"mp-3048","U2SeN2",0,5,3,89.6098158634959,10.8040186058663,17.9219631726992,2,164,3.84397767751027,90,-10.038499576,-10.277299576,-1.72695530646875,0,TRUE,9.35418686,TRUE,3.9999991,2,133
"mp-3050","Y3Al5O12",4.4951,80,3,864.696418388932,4.55987063240856,10.8087052298616,3,230,10.3950976849655,109.471276011539,-8.14470874675,-8.55690874675,-3.6825308955,0,TRUE,3.56806888,FALSE,0,0,130
"mp-3051","Mg2GeO4",3.6652,28,3,304.605757179237,4.03946241387532,10.8787770421156,7,62,4.91450632,90,-6.28180191714286,-6.67437334571429,-2.73003866,0,TRUE,2.01447733,FALSE,0,0,68
"mp-3053","DyAlNi",0,9,3,160.304635611218,7.71226944233514,17.8116261790243,6,189,6.90950996,90,-5.31782590666667,-5.31782590666667,-0.60699279,0,TRUE,5.75855807,FALSE,1.98e-05,0,107