"material_id","formula_pretty","band_gap","nsites","nelements","volume","density","density_atomic","crystal_symmetry","symmetry_number","sides_abc","angles_abc","uncorrected_energy_per_atom","energy_per_atom","formation_energy_per_atom","energy_above_hull","is_stable","efermi","is_magnetic","total_magnetization","num_magnetic_sites","atomic_number"
"mp-7788","Er2Co12P7",0,21,3,245.165652362902,8.52420659920221,11.6745548744239,6,174,8.91060734083871,90.000044192948,-7.11107331809524,-7.11107331809524,-0.809722427301587,0,TRUE,7.89037391,TRUE,6.4268246,12,158
"mp-7790","Ti2N",0,6,2,75.7877181315647,4.80892482419614,12.6312863552608,4,141,4.13742522601007,112.944371827824,-9.34530615833333,-9.46563949166667,-1.42314650555555,0.0146231283333335,FALSE,6.83610996,FALSE,0,0,29
"mp-7791","Li2GeF6",5.5194,18,3,179.636516980904,3.70702695661228,9.97980649893913,4,136,4.53792375,90,-4.92227624611111,-5.23027624611111,-3.0180820912963,0,TRUE,-2.39751646,FALSE,0,0,80
"mp-7792","YScS3",1.7758,20,3,426.595618753936,3.58201748018279,21.3297809376968,7,62,6.38688086,90,-7.026290181,-7.328090181,-2.28643221720833,0.0089082102499995,FALSE,3.91683507,FALSE,0,0,92
"mp-7794","KSnS2",0,4,3,104.882389996215,3.5138140686734,26.2205974990537,2,160,7.90015861607056,29.358570167088,-4.0397824375,-4.2912824375,-0.943064803562501,0.108254092812499,FALSE,4.04003578,FALSE,0.0067929,0,85
"mp-7795","RbSnS2",0,4,3,110.866805614846,4.01865627229581,27.7167014037114,2,160,8.15096802135605,28.7629674363857,-3.9767629525,-4.2282629525,-0.9125115371875,0.121389519093753,FALSE,3.95457971,FALSE,0.0865132,0,103
"mp-7798","MgGeN2",3.4891,16,3,188.120256229474,4.4120353450235,11.7575160143421,7,33,5.17443786,90,-6.30232939875,-6.48282939875,-0.758754960000001,0,TRUE,3.48835345,FALSE,0,0,51
"mp-7800","LiSmO2",3.373,16,3,188.642439827174,6.66530211308867,11.7901524891984,1,14,5.99641927,77.3317825699626,-6.965461191875,-7.308961191875,-3.17873958583333,0.0087160707812508,FALSE,2.06198,FALSE,0,0,73
"mp-7801","CaGeN2",2.6622,8,3,105.627084122244,4.4248118659956,13.2033855152805,4,122,5.25029254934762,94.052178460719,-6.45762672875,-6.63812672875,-0.8127223325,0,TRUE,4.50594036,FALSE,0,0,59
"mp-7804","HfCo3B2",0,6,3,59.1744243652864,10.5768060823551,9.86240406088107,6,191,4.76532455,90,-8.02069311666667,-8.02069311666667,-0.580538790555555,0.0176932799999924,FALSE,6.13704597,FALSE,0,0,131
"mp-7806","Cr3P",0,16,2,181.701912018707,6.83444229009827,11.3563695011692,4,82,4.44996941810986,83.7854594896078,-8.932732643125,-8.932732643125,-0.339621413958334,0,TRUE,8.46215116,FALSE,1.4e-06,0,63
"mp-7808","BaP3",0.5735,8,2,201.851642833369,3.78828993961979,25.2314553541711,1,12,4.78766286913869,66.4823649345968,-5.20594366875,-5.20594366875,-0.66622305375,0,TRUE,4.17746109,FALSE,0,0,86
"mp-7810","UVC2",0,16,3,190.263092244092,10.9266620635823,11.8914432652558,7,62,3.19124761,90,-10.092849013125,-10.092849013125,-0.384687246875002,0,TRUE,9.9491543,FALSE,9.5e-06,0,121
"mp-7811","SrSO4",3.9294,6,3,94.2152038658782,3.23739821853877,15.7025339776464,3,216,5.1075425891683,60,-6.27786139833333,-6.73586139833333,-2.46707837079861,0.217051386250006,FALSE,1.2431908,FALSE,0,0,78
"mp-7812","GeO2",3.2779,12,2,176.342694549191,3.94134422696312,14.6952245457659,4,92,4.981571,90,-6.4581338725,-6.9161338725,-2.07733211333333,0.000588949722224,FALSE,-1.33778176,FALSE,0,0,40
"mp-7814","Ta2CS2",0,5,3,82.989368224396,8.76469685199199,16.5978736448792,2,166,9.06577664728369,20.8947850005282,-9.178171218,-9.379371218,-1.13594712075,0,TRUE,4.65920066,FALSE,0,0,95
"mp-7817","YB12",0,13,2,105.110592477763,3.45404476184681,8.08543019059712,3,225,5.29729103693622,60.0000014520086,-6.90693153846154,-6.90693153846154,-0.24391827974359,0,TRUE,5.73668124,FALSE,0,0,39
"mp-7818","Pd4Se",0,10,2,158.634633878247,10.5648358631719,15.8634633878247,4,114,5.28074265,90,-5.003404921,-5.097804921,-0.25471717746875,0,TRUE,4.49321604,FALSE,1e-07,0,172
"mp-7819","Pd4S",0,10,2,149.540509732627,10.1658534720773,14.9540509732627,4,114,5.15464127,90,-5.148911162,-5.249511162,-0.278315740625,0,TRUE,4.92443743,FALSE,2e-07,0,154
"mp-7821","VSb",0,4,2,82.9901661838163,6.91112214368221,20.7475415459541,6,194,4.14005765260171,90,-6.61099484,-6.70699484,-0.100541185000001,0.119459789999997,FALSE,7.34328893,TRUE,2.900083,2,74
"mp-7822","Sc5Si3",0,16,2,315.523047055126,3.25279852237536,19.7201904409454,6,193,7.89501718,90,-6.76032695,-6.73370195,-0.741414498124999,0,TRUE,5.36914211,FALSE,5.46e-05,0,112
"mp-7823","V2NiSe4",0,7,3,121.630713585728,6.50417991349976,17.3758162265325,1,12,6.69683583948308,64.1736427766443,-6.00948122571429,-6.27919551142857,-0.860396264196429,0.0146027061904705,FALSE,5.94777227,TRUE,0.522108,3,153
"mp-7824","K2ReF6",1.6997,9,3,133.315358547237,4.71317077264398,14.8128176163597,2,164,5.8470906251209,90.000720511536,-5.36793181777778,-5.67593181777778,-2.77213194177778,0,TRUE,0.70440068,TRUE,3,1,139
"mp-7825","K2GeF6",5.7998,9,3,125.396402340304,3.50692366818792,13.9329335933671,2,164,5.60579197,90,-4.76076103777778,-5.06876103777778,-3.03401664288889,0.0035157944444419,FALSE,-2.80172282,FALSE,0,0,96
"mp-7826","HgO",1.3101,6,2,99.9919665900032,10.7905216501886,16.6653277650005,2,152,3.61501779164691,90.0011462353478,-2.91908743833333,-3.26258743833333,-0.637402900208333,0.0012865654166667,FALSE,0.27753578,FALSE,0,0,88
"mp-7827","K2Ni(CN)4",3.0324,22,4,451.816836556004,1.77117272708235,20.5371289343638,1,14,7.68119,89.176881156949,-7.25025603045455,-7.38152875772727,-0.266840008272728,0.0844575707196959,FALSE,-1.25260567,FALSE,0.0002785,0,74
"mp-7829","MnNbSi",0,9,3,132.472320115576,6.61583898866491,14.7191466795084,6,189,6.48617425001807,90,-8.78581530444444,-8.76214863777778,-0.532602517088122,0,TRUE,7.45112484,TRUE,8.7933584,6,80
"mp-7830","UO",0,2,2,28.7575184659316,14.6683008576383,14.3787592329658,3,225,3.43892049220566,60,-10.384687425,-10.728187425,-2.609138064375,0.211428382741937,FALSE,13.04764029,TRUE,2.0006295,1,100
"mp-7831","MgIn2O4",1.838,14,3,185.89977774853,5.67993649561302,13.2785555534664,3,227,6.4061625775937,60,-5.72149460357143,-6.11406603214286,-2.27257998142857,0.0270220821428575,FALSE,4.12873003,FALSE,0.0001811,0,85
"mp-7832","BW",0,8,2,82.9474924183674,15.586997529593,10.3684365522959,4,141,3.13111773400188,100.30653569502,-10.18643610625,-10.18643610625,-0.367675105833332,0,TRUE,9.03897167,FALSE,1e-07,0,79
"mp-7834","TaSe2",0,3,2,70.3484926610513,7.99879758429371,23.4494975536838,2,160,3.4718083097058,75.7063585082632,-7.09735364333333,-7.41202031,-1.12882011489583,0.0043175866666675,FALSE,3.38048023,TRUE,0.8588046,1,107
"mp-7839","ReB3",0,8,2,65.4202241780873,11.0993279550097,8.17752802226091,6,194,3.14775765968173,90,-7.37045389625,-7.37045389625,0.750221728125,1.07110908020833,FALSE,9.54851755,FALSE,0.0012784,0,85
"mp-7841","Ba(GaSe2)2",1.8578,14,3,414.719964097005,4.74564584812151,29.6228545783575,7,66,6.5294149123379,90,-4.23032273428571,-4.50003702,-1.36306374919643,0,TRUE,1.06519527,FALSE,0,0,121
"mp-7844","Mg3As2",0.8044,10,2,240.589622438559,3.07493473539126,24.0589622438559,3,224,6.21955,90,-3.284197791,-3.284197791,-0.460382398999999,0.165743780000001,FALSE,2.7805295,FALSE,0,0,57
"mp-7845","Zn3As2",0,10,2,211.282230707407,5.43976731940033,21.1282230707407,3,224,5.955995,90,-2.608291599,-2.608291599,0.0112019289999999,0.1592259510625,FALSE,2.40776748,FALSE,0.0011952,0,93
"mp-7846","Zn3P2",0,10,2,186.786798771461,4.59035527052848,18.6786798771461,3,224,5.716305,90,-2.926541533,-2.926541533,-0.0053743643333334,0.1829397215,FALSE,3.30197733,FALSE,0.0008834,0,75
"mp-7848","AlPO4",5.6696,6,3,92.9926959819504,2.17767162886419,15.4987826636584,4,82,5.11987234838267,87.8015801889733,-7.48792099166667,-7.94592099166667,-3.12164879472222,0,TRUE,-0.70416012,FALSE,0,0,52
"mp-7849","AlAsO4",4.2634,6,3,97.0643841104063,2.83816417471668,16.1773973517344,4,82,5.2020960239737,87.2999918668056,-6.68626059666667,-7.14426059666667,-2.44568575,0,TRUE,-1.37219012,FALSE,0,0,70
"mp-7851","TaCo3",0,12,2,140.06384828947,12.7239180316227,11.6719873574558,2,166,6.86121584936588,43.722040065588,-8.53438933583333,-8.53438933583333,-0.238706582083334,0,TRUE,5.99041386,FALSE,0.0189908,0,127
"mp-7853","NaTl3(SO3)2",2.8409,12,4,225.132440346483,5.87312478562629,18.7610366955403,2,164,5.99686660700486,90,-5.091771635,-5.435271635,-1.57164774044181,0.114286103634259,FALSE,2.54130994,FALSE,0.0003055,0,205
"mp-7857","TiB",0,8,2,84.9133083613791,4.58995713299857,10.6141635451724,7,62,3.05025322,90,-8.11949658625,-8.11949658625,-0.8320546925,0,TRUE,6.79493263,FALSE,0,0,27
"mp-7858","MgUO4",1.6746,12,3,148.56533926294,7.29492119367767,12.3804449385784,7,74,5.78256845109132,111.287328700354,-8.45156771833333,-8.90956771833333,-3.46316023416667,5.93999999995987e-05,FALSE,3.99891038,FALSE,0,0,128
"mp-7859","ZrS",0,4,2,72.0707337491183,5.68125757383598,18.0176834372796,4,129,3.5877431,90,-7.77560959,-8.02710959,-1.6850343415625,0,TRUE,7.24716913,FALSE,5e-06,0,56
"mp-7861","CrCuSe2",0,4,3,77.8378152532469,5.83385464773221,19.4594538133117,2,160,7.11127280214238,29.6339164132622,-5.3582357425,-5.5942357425,-0.408216468671874,0.250498480625001,FALSE,4.76402723,TRUE,2.9986011,2,87
"mp-7863","Rb2Sn2O3",1.2196,7,3,163.007326965931,4.64882976241764,23.286760995133,2,166,6.14725271838143,59.6646985787788,-4.97230595,-5.26673452142857,-1.72098052303571,0,TRUE,3.00817634,FALSE,0,0,103
"mp-7868","PtO2",1.5362,6,2,72.8905305058381,10.3464704711598,12.148421750973,6,186,3.13141957,90,-5.78633153166667,-6.24433153166667,-0.922827950833332,0.004623368333334,FALSE,2.25278234,FALSE,0,0,86
"mp-7870","GdO",0,2,2,39.1971431689251,7.33949909882934,19.5985715844625,3,216,3.81290926877522,60,-12.21612651,-12.55962651,-3.048221034375,0.198591605833332,FALSE,3.97870177,TRUE,6.0406184,1,72
"mp-7874","LiGaGe",0,6,3,102.014291135589,4.86059594278067,17.0023818559316,6,186,4.16874396,90,-3.45404773833333,-3.45404773833333,-0.267365490277778,0,TRUE,3.33643974,FALSE,0,0,66
"mp-7875","Ba(MgSi)2",0,5,3,119.674440359247,3.35936220908619,23.9348880718494,4,139,4.66216626683382,111.299700499331,-3.529733288,-3.501333288,-0.307299068,0,TRUE,4.52642717,FALSE,0,0,82
"mp-7876","Ba(MgGe)2",0,5,3,124.061931240469,4.43325976407694,24.8123862480938,4,139,4.66698910896664,110.76159923663,-3.344272952,-3.344272952,-0.471154802,0,TRUE,3.38998095,FALSE,1e-07,0,100
"mp-7877","Sr(CuSi)2",0,5,3,86.1486524157672,5.22134463354045,17.2297304831534,4,139,4.17053736313471,111.207620894081,-4.498639822,-4.470239822,-0.322531251333333,0,TRUE,6.07496121,FALSE,0,0,81
"mp-7878","Ca(AgGe)2",0,5,3,101.866671262093,6.53828099360238,20.3733342524187,4,139,4.32077717032572,110.21015399136,-3.684558126,-3.684558126,-0.301204606666667,0,TRUE,4.16630351,FALSE,0,0,99
"mp-7879","Sr(AgGe)2",0,5,3,107.483390906132,6.93110128568045,21.4966781812263,4,139,4.46239439016936,110.907522041355,-3.661264484,-3.661264484,-0.34113225,0,TRUE,4.02004951,FALSE,0,0,117
"mp-7880","Sr(SiAg)2",0,5,3,100.999906464575,5.91098857524706,20.199981292915,4,139,4.38351183733261,111.04983363627,-3.936086998,-3.907686998,-0.266638694,0,TRUE,4.44923685,FALSE,1.7e-06,0,99
"mp-7881","Sr(CdGe)2",0,5,3,119.802817840952,6.34430204848217,23.9605635681903,4,139,4.52729052742465,109.856562388913,-2.86764576,-2.86764576,-0.311380023333333,0,TRUE,3.84465705,FALSE,0,0,118
"mp-7882","Ba(AgSn)2",0,5,3,135.761270827259,7.22238933021183,27.1522541654518,4,139,4.85420758814567,111.217130328041,-3.522686284,-3.522686284,-0.402040152666667,0,TRUE,4.67887701,FALSE,2.2e-06,0,153
"mp-7883","Ca(GeAu)2",0,5,3,102.371074157553,9.39655633683898,20.4742148315107,4,139,6.03707347997807,136.652391754532,-3.996335922,-3.996335922,-0.436452004,0.0249627787083355,FALSE,5.16607426,FALSE,0,0,131
"mp-7885","AlAgS2",1.7077,4,3,74.8749527926611,4.41287262406851,18.7187381981653,2,156,3.54026351493614,90,-4.39974203,-4.65124203,-0.938484138229166,0.0704241512500001,FALSE,4.16099646,FALSE,7e-07,0,76
"mp-7886","Cs2RbYF6",6.1978,10,4,237.048039909123,3.88203670762807,23.7048039909123,3,225,6.946783895577,60,-5.358857389,-5.636057389,-3.56538901550287,0,TRUE,-2.57792191,FALSE,0.0003742,0,176
"mp-7888","Sr2HoReO6",0,10,4,144.46637440252,7.15374688649446,14.446637440252,3,225,5.88971016939136,60,-7.618064956,-8.030264956,-3.02165943308333,0.0729725162916778,FALSE,4.63764304,TRUE,1.9994257,2,220
"mp-7889","Sr2YReO6",0,10,4,145.874672993493,6.21927202999164,14.5874672993493,3,225,5.90878649613421,60,-7.779816464,-8.192016464,-2.99500471675,0.0839403312916786,FALSE,4.68201772,TRUE,2.0002989,1,192
"mp-7891","Mg3As2",0.8711,5,2,105.951080460543,3.49122153259445,21.1902160921087,2,164,4.26097949,90,-3.430370588,-3.430370588,-0.606555196,0.0195709829999999,FALSE,3.95419047,FALSE,0,0,57
"mp-7892","Mn2AlB2",0,5,3,44.5322560118837,5.90946064983396,8.90645120237674,7,65,2.81296046,104.594830496276,-7.55609536,-7.55609536,-0.470417368839081,0,TRUE,8.72129842,TRUE,0.9450429,2,43
"mp-7895","Rb2O2",1.76,4,2,88.5410394007284,3.80592436499292,22.1352598501821,7,71,4.18679973108658,72.0260738745089,-3.9647411,-4.1972411,-1.233629708125,0,TRUE,1.29022195,FALSE,0,0,45
"mp-7896","Cs2O2",1.6496,4,2,105.420639662395,4.69096610641112,26.3551599155987,7,71,4.33370958994754,72.9218529997676,-3.91969264,-4.15219264,-1.23114709834052,0,TRUE,2.45455361,FALSE,0,0,63
"mp-7897","K3P",0.2117,8,2,279.42655726652,1.76222266066626,34.9283196583151,6,194,5.67402677,90,-2.39364413875,-2.39364413875,-0.207519301833333,0.0104633216666663,FALSE,0.78756816,FALSE,0,0,53
"mp-7898","Rb3As",0,8,2,343.702887590051,3.20147503036091,42.9628609487563,6,194,6.08094816,90,-2.14902190375,-2.14902190375,-0.248841748125,0,TRUE,0.82861099,FALSE,0,0,107
"mp-7899","BaCdO2",0.9747,16,3,275.167588750861,6.80072773138195,17.1979742969288,7,62,3.69197323,90,-4.986921371875,-5.330421371875,-2.14661084125,0,TRUE,1.79066562,FALSE,0,0,112
"mp-7903","Cs2ZrF6",6.6977,9,3,175.314386835649,4.46144759889345,19.4793763150721,2,164,6.38815355,90,-5.79007204,-6.09807204,-3.67502990898467,0,TRUE,-2.78479746,FALSE,0,0,140
"mp-7904","CdP4",0.6551,10,2,206.572949242461,3.79909785687658,20.6572949242461,1,14,5.17206495,99.2447577031215,-4.57733165,-4.57733165,-0.0621116926666665,0.01086657666667,FALSE,5.06563875,FALSE,0,0,93
"mp-7905","SiO2",4.7647,6,2,85.168136484324,2.34294964191634,14.194689414054,7,72,4.86415390246824,121.826532328789,-7.49938752833333,-7.95738752833333,-2.85115571083333,0.416876378333332,FALSE,0.24751026,FALSE,0.0004796,0,22
"mp-7906","Al2HgS4",2.0244,7,3,159.27341271375,3.99109970123146,22.7533446733928,4,82,5.57583360085778,115.547836142589,-4.29751276142857,-4.58494133285714,-1.1077082625,0,TRUE,2.15172338,FALSE,0,0,141
"mp-7907","Al2ZnSe4",2.1529,7,3,169.043167506385,4.27516040492698,24.1490239294835,4,82,5.56588280643796,114.433717282928,-4.07885126142857,-4.34856554714286,-1.10077394991071,0,TRUE,2.00639463,FALSE,0,0,145
"mp-7908","Al2ZnTe4",1.6251,7,3,216.63505529357,4.82729415988231,30.9478650419386,4,82,6.03266165858576,114.323096105772,-3.51009781857143,-3.75124067571429,-0.704937983809524,0,TRUE,3.5591303,FALSE,0,0,199
"mp-7909","Al2CdTe4",1.6245,7,3,231.640331505634,4.85152903705557,33.0914759293764,4,82,6.24518716158878,114.955617964423,-3.46262795857143,-3.70377081571429,-0.705590102380952,0,TRUE,3.050266,FALSE,0,0,217
"mp-7910","Al2HgTe4",1.1108,7,3,230.809868905884,5.50338022731793,32.9728384151263,4,82,6.22638848580163,114.862028435562,-3.29149359428571,-3.53263645142857,-0.622914223095238,0,TRUE,3.22883458,FALSE,0,0,249
"mp-7911","KCuO",1.243,12,3,234.555814582346,3.35975467854889,19.5463178818621,4,139,5.4847662903825,81.3986346891763,-4.38165209083333,-4.61065209083333,-1.22522064808333,0,TRUE,1.40905245,FALSE,0,0,56
"mp-7913","BeSiN2",5.1459,16,3,133.774529577935,3.23288732677943,8.36090809862091,7,33,4.67669321,90,-7.680237376875,-7.860737376875,-1.401307190625,0,TRUE,5.98584974,FALSE,0,0,25
"mp-7914","NaScO2",3.98,4,3,46.6817254701936,3.55517526365814,11.6704313675484,2,166,5.69021900858675,32.2693753383553,-7.239804845,-7.583304845,-3.19621188976293,0,TRUE,2.09277341,FALSE,0,0,40
"mp-7915","ZrSiO",0,6,3,81.0344881662272,5.54543428589989,13.5057480277045,4,129,3.31999,90,-8.07132408166667,-8.276657415,-1.97008829125,0.259244659583333,FALSE,7.90941535,FALSE,0,0,62
"mp-7916","HfSiS",0,6,3,99.255709477769,7.98486807878217,16.5426182462948,4,129,3.52589064,90,-7.65085818,-7.79485818,-1.288539204375,0,TRUE,8.12019096,FALSE,1e-07,0,102
"mp-7917","HfGeSe",0,6,3,112.454077191286,9.74846540355531,18.7423461985476,4,129,3.70033751,90,-6.95885853166667,-7.116191865,-1.09081574411458,0,TRUE,6.8341168,FALSE,0,0,138
"mp-7918","HfGeS",0,6,3,103.56285840336,9.08156395479578,17.26047640056,4,129,3.61295349,90,-7.29104985833333,-7.458716525,-1.21982760770833,0,TRUE,7.59404625,FALSE,1e-07,0,120
"mp-7921","MgPdF6",1.8285,8,3,94.9793124798135,4.27840024497294,11.8724140599767,2,148,5.33347187676625,55.0708944373464,-4.36751053875,-4.71401053875,-2.432881080625,0,TRUE,-1.51059418,FALSE,0,0,103
"mp-7922","CaPdF6",2.0902,8,3,111.968333079263,3.86315652455298,13.9960416349079,2,148,5.72185510758021,53.3902536481134,-4.602861515,-4.949361515,-2.617567078125,0,TRUE,-2.32511834,FALSE,0,0,111
"mp-7923","Co(MoS2)2",0,7,3,107.131091674647,5.8756598066791,15.3044416678068,1,12,6.40221681719324,66.0068482217601,-7.08475402571429,-7.37218259714286,-0.894265813928572,0.135638899285712,FALSE,7.76403978,FALSE,0.0052665,0,85
"mp-7924","Li2Sn5",0,14,2,329.155225835366,6.12880785193716,23.511087559669,4,127,3.10717593,90,-3.590949215,-3.590949215,-0.181562785238095,0.0046469228571432,FALSE,6.26241816,FALSE,0,0,203
"mp-7925","HoSb2",0,3,2,85.226117140304,7.95821440520048,28.4087057134347,7,21,3.60008270598677,90,-4.47725457,-4.60525457,-0.325117453333333,0.536072589444444,FALSE,6.49340722,FALSE,0.0009813,0,118
"mp-7926","TaSe2",0,12,2,281.755261646301,7.98854083317607,23.4796051371918,6,186,3.47660071,90,-7.0948545075,-7.40952117416667,-1.1263209790625,0.0068167225000008,FALSE,3.20046718,TRUE,3.4175104,4,107
"mp-7927","Nb4N5",0,9,2,103.675953990112,7.07388771070498,11.5195504433458,4,87,4.31147513911171,80.6793755557513,-10.0719385777778,-10.2724941333333,-1.15163915722222,0.0289003347777789,FALSE,6.48741957,FALSE,0,0,151
"mp-7928","K2PtS2",1.2356,5,3,120.879000274239,4.63507707305511,24.1758000548477,7,71,3.61866558970134,70.2851772767583,-4.24560677,-4.44680677,-1.13384058045,0,TRUE,2.70672237,FALSE,0,0,113
"mp-7929","Rb2PtS2",1.2521,5,3,132.075593662026,5.40811663591813,26.4151187324051,7,71,3.64972600686006,69.48675247118,-4.161070108,-4.362270108,-1.10124986825,0,TRUE,2.74603744,FALSE,8e-07,0,131
"mp-7930","Zr3(Cu2Si)2",0,9,3,138.649769226948,6.99459980969595,15.4055299141053,6,189,6.33600025,90,-6.40527215555556,-6.38949437777778,-0.512764974444444,0,TRUE,6.57851661,FALSE,2e-07,0,123
"mp-7931","SrP",0.4594,12,2,342.362893762648,3.45124273296841,28.5302411468874,6,189,8.08553955,90,-4.59843436916667,-4.59843436916667,-1.04703638916667,0,TRUE,3.41588326,FALSE,0,0,53
"mp-7932","USiS",0,6,3,118.225961787045,8.37613924516187,19.7043269645075,4,129,4.063095,90,-7.32208594333333,-7.46608594333333,-0.515026641041666,0.615433213611109,FALSE,9.31796597,FALSE,0.0010095,0,122
"mp-7935","USbTe",0,6,3,175.591430815214,9.21831232794383,29.2652384692023,4,129,4.34354185,90,-6.747207835,-6.95187450166667,-0.763968787222222,0,TRUE,9.06514659,TRUE,5.5113328,2,195
"mp-7936","LiNbS2",0.7135,8,3,127.422502800082,4.27382667182295,15.9278128500103,6,194,3.37951122,90,-6.37420357375,-6.62570357375,-1.55492166364583,0,TRUE,5.91385699,FALSE,0,0,60
"mp-7937","NaNbS2",0.6251,8,3,143.95860343944,4.15314467835554,17.99482542993,6,194,3.42669221,90,-6.13165969875,-6.38315969875,-1.45897718195043,0,TRUE,5.66633249,FALSE,0,0,68
"mp-7938","KNbS2",0.812,8,3,162.740056113326,4.00257080197013,20.3425070141658,6,194,3.47582583,90,-6.03412556375,-6.28562556375,-1.4144746335625,0.008580634374999,FALSE,5.25065051,FALSE,0,0,76