"material_id","formula_pretty","band_gap","nsites","nelements","volume","density","density_atomic","crystal_symmetry","symmetry_number","sides_abc","angles_abc","uncorrected_energy_per_atom","energy_per_atom","formation_energy_per_atom","energy_above_hull","is_stable","efermi","is_magnetic","total_magnetization","num_magnetic_sites","atomic_number"
"mp-833","CaPd2",0,6,2,113.214319357495,7.41920672278522,18.8690532262491,3,227,5.43007031713662,59.9999979263516,-4.81592357166667,-4.81592357166667,-0.694135738333333,0,TRUE,4.00417202,FALSE,0,0,66
"mp-834","ThN",0,2,2,34.5407987491529,11.8285317916176,17.2703993745765,3,225,3.65551974973031,59.9999980621653,-9.44719808,-9.62769808,-1.7525214925,0,TRUE,8.82678964,FALSE,2e-06,0,97
"mp-836","TbZn",0,2,2,45.2156301958302,8.23865443303433,22.6078150979151,3,221,3.56256554,90,-3.2906597,-3.2906597,-0.343604845,0,TRUE,3.13544488,FALSE,0.0006168,0,95
"mp-838","Cu3Sn",0,4,2,58.6085713189113,8.76466406900497,14.6521428297278,3,225,4.36005576813531,60,-4.01488046,-4.01488046,0.0619175062500003,0.0735731600000004,FALSE,9.37551821,FALSE,1.54e-05,0,108
"mp-839","V3Au",0,8,2,114.309453607742,10.1626193965629,14.2886817009678,3,223,4.85320954,89.9999974027201,-7.6675597425,-7.6675597425,-0.0361596899999998,0,TRUE,6.29267855,TRUE,4.0672172,6,125
"mp-840","SmRh2",0,6,2,108.186787356823,10.9336061147524,18.0311312261371,3,227,5.34847140715172,59.9999988421048,-7.17319627,-7.17319627,-0.690795644999999,0,TRUE,5.22956356,FALSE,6e-07,0,107
"mp-841","Li2O2",1.9891,8,2,63.1078954512313,2.41449537374407,7.88848693140391,6,194,3.10263483,90,-4.8461121725,-5.0786121725,-1.65080638354167,0,TRUE,1.32626051,FALSE,0,0,11
"mp-842","CaPt2",0,6,2,112.406410764153,12.7117356811151,18.7344017940255,3,227,5.41712288239287,60.0000018040479,-5.64788530666667,-5.64788530666667,-0.9319298,0,TRUE,5.93905539,FALSE,0,0,98
"mp-843","Th2Fe17",0,19,2,267.175674938804,8.78476005959917,14.0618776283581,2,166,6.49395115318797,82.3602342262751,-8.37676335052632,-8.37676335052632,-0.017917188947368,0.016285482631579,FALSE,5.70827459,TRUE,42.2190994,19,90
"mp-844","Ca3N2",1.1086,40,2,747.405977513034,2.63493315952329,18.6851494378259,3,206,9.902073712576,109.471218458047,-5.3269523715,-5.4713523715,-0.9333944735,0,TRUE,2.35359444,FALSE,0,0,47
"mp-845","Cu5Sn4",0,36,2,629.420227916603,8.36384589908376,17.4838952199056,1,14,7.35850666,117.664852245379,-4.06903242194444,-4.06903242194444,-0.0096634474999998,0.0110577147222219,FALSE,8.18854295,FALSE,2e-07,0,266
"mp-846","Hf2Al3",0,10,2,178.775861819481,8.13522502826445,17.8775861819481,7,43,5.47594775208753,100.742512602463,-6.656737219,-6.656737219,-0.426516109,0.0019004581999961,FALSE,6.25264831,FALSE,0,0,98
"mp-850","ScNi2",0,6,2,80.50237736607,6.69735290494447,13.417062894345,3,227,4.84664728908183,59.9999743396847,-6.48516929666667,-6.48516929666667,-0.520921808333333,0,TRUE,6.85009494,FALSE,1e-07,0,49
"mp-851","ErPd",0,2,2,41.1730824002096,11.0376645302055,20.5865412001048,3,221,3.45306267,90,-5.804944645,-5.804944645,-0.931144335,0,TRUE,3.85084778,FALSE,4.14e-05,0,114
"mp-853","ErNi5",0,6,2,78.1029026023979,9.79545569379214,13.017150433733,6,191,4.8033689324735,90,-5.914515475,-5.914515475,-0.33644844,0,TRUE,6.58184248,TRUE,1.8621736,6,180
"mp-855","MgBe13",0,28,2,257.355662059304,1.82553159200829,9.19127364497514,3,226,7.13974846949009,60.0001940040081,-3.58825260535714,-3.58825260535714,-0.0016349414285719,0,TRUE,4.25137995,FALSE,1e-07,0,12
"mp-856","SnO2",0.6519,6,2,72.8214390739386,6.87319155630278,12.1369065123231,4,136,3.20749977,90,-6.28464662666667,-6.74264662666667,-2.10833020083333,0,TRUE,5.59411961,FALSE,0,0,58
"mp-858","TmAl2",0,6,2,116.433571380528,6.35778236201489,19.4055952300879,3,227,5.48105841792352,60.0000011800865,-4.48793473166667,-4.48793473166667,-0.498939037222222,0,TRUE,5.81859984,FALSE,0,0,82
"mp-861","Hf2Ni",0,6,2,105.757034830559,13.0533523514976,17.6261724717599,4,140,5.23608483966699,75.3229559966279,-8.905189875,-8.905189875,-0.340351628333333,0.0057491816666672,FALSE,5.57000881,FALSE,0,0,100
"mp-862","CaSi2",0,6,2,122.515637982676,2.60905835782013,20.4192729971127,4,141,4.25670369155844,106.712409761939,-4.65409859833333,-4.606765265,-0.321353285,0.0139571166666669,FALSE,5.96867759,FALSE,0,0,34
"mp-863","PuCo2",0,6,2,90.407287054217,13.2930275216456,15.0678811757028,3,227,5.03778325251305,60,-9.662641035,-9.662641035,-0.167816395,0,TRUE,9.59868857,TRUE,6.0369708,6,27
"mp-865","CaB6",0,7,2,70.8778549190613,2.45864680871437,10.1254078455802,3,221,4.13844183,90,-6.41951443571429,-6.41951443571429,-0.407807220714285,0,TRUE,4.7383542,FALSE,0,0,45
"mp-867","ErCd",0,2,2,50.0772826635097,9.2737252513588,25.0386413317548,3,221,3.6859286,90,-3.062466665,-3.062466665,-0.31716238,0,TRUE,3.14639432,FALSE,1.6e-06,0,116
"mp-869","TaAl3",0,4,2,62.4987398075825,6.95826382842547,15.6246849518956,4,139,3.83420144821463,112.346632424621,-6.092616465,-6.092616465,-0.318990185,0,TRUE,7.96581644,FALSE,6.1e-06,0,99
"mp-870","TlN3",1.7584,8,2,140.53352166703,5.82298752624312,17.5666902083787,4,140,5.70020095793507,101.471492831962,-6.51403108375,-6.78478108375,0.0582508966666672,0.0582508966666672,FALSE,2.23962284,FALSE,0,0,95
"mp-871","FeSi",0.180200000000001,8,2,85.3124090718591,6.53456516563161,10.6640511339824,3,198,4.40220979,90,-7.45914898625,-7.42364898625,-0.47597936625,0,TRUE,9.48775017,FALSE,0,0,40
"mp-872","BaSn",0,4,2,160.994652464331,5.28165916677587,40.2486631160827,7,63,4.71513922,112.863833818293,-3.6669172625,-3.6669172625,-0.702643865,0,TRUE,4.02878395,FALSE,0,0,106
"mp-873","VPd3",0,4,2,58.1008734916922,10.5804614684807,14.5252183729231,4,139,3.85891919206474,113.906744706195,-6.4014548675,-6.4014548675,-0.2455669925,0.0058648574999997,FALSE,5.53462408,TRUE,1.2506356,1,115
"mp-875","AlOs",0,2,2,26.9436626893443,13.3867562743888,13.4718313446721,3,221,2.99791198,90,-7.887310035,-7.887310035,-0.400838405,0.0209908375000003,FALSE,9.29979196,FALSE,0,0,89
"mp-877","Er2In",0,6,2,162.173376550418,9.20175676058408,27.0288960917363,6,194,5.30839288,90,-4.30515917833333,-4.30515917833333,-0.342785395,0,TRUE,4.77039316,TRUE,1.5109965,4,117
"mp-878","Ho2S3",1.3878,30,2,702.051868403268,6.04640824935925,23.4017289467756,1,11,3.99704149,98.6354525231005,-6.38338068766667,-6.68518068766667,-2.37034721954167,0,TRUE,3.18553358,FALSE,0,0,99
"mp-879","La3Te4",0,14,2,457.140397680803,6.73540569112382,32.6528855486288,3,220,8.40537670826361,109.471221966493,-5.515773205,-5.75691606214286,-1.84530964952381,0,TRUE,8.46622151,FALSE,1.1e-05,0,270
"mp-880","Pr2Fe17",0,19,2,267.203353083716,7.65118761641355,14.0633343728272,2,166,6.48556275304194,83.0298983785234,-8.02676531789474,-8.02676531789474,0.0549279494736846,0.0549279494736847,FALSE,4.64421596,TRUE,40.2577943,19,59
"mp-881","NpSn3",0,4,2,103.711177052666,9.49671544150255,25.9277942631665,3,221,4.69834795,90,-6.38002672,-6.38002672,-0.135902908437501,0,TRUE,10.1051266,TRUE,3.7136534,1,100
"mp-882","Ti6O",0,14,2,213.514843965804,4.71609149412065,15.2510602832717,2,162,5.10479035,90,-8.28123464857143,-8.37937750571428,-0.905143104107143,0.0117340728571431,FALSE,6.05708836,FALSE,1.2e-06,0,118
"mp-883","HoN",0.0874999999999999,2,2,28.6129829129569,10.3845136690182,14.3064914564785,3,225,3.43314945210366,60.0000081901766,-8.197497155,-8.377997155,-1.9185452575,0,TRUE,3.87231936,FALSE,0,0,74
"mp-884","NdSi2",0,6,2,125.147874259519,5.31840621222846,20.8579790432532,4,141,4.32215094905779,107.066915186081,-5.80926456,-5.76193122666667,-0.5556700625,0,TRUE,6.84464515,FALSE,0,0,74
"mp-886","Ga2O3",2.0078,10,2,105.733762937305,5.8875879995332,10.5733762937305,1,12,3.04756735124365,103.351508677262,-6.036811681,-6.449011681,-2.26976004525,0,TRUE,2.06965603,FALSE,0,0,47
"mp-888","CaAs",0,12,2,319.001477297835,3.59173249091413,26.5834564414862,6,189,7.86585186,90,-4.4215395,-4.4215395,-1.0891803575,0,TRUE,3.41706237,FALSE,0,0,53
"mp-889","Cr3B4",0,7,2,54.9785945254641,6.01748772106826,7.85408493220916,7,71,2.92450459429254,102.296913382204,-8.41408656571429,-8.41408656571429,-0.460270923809523,0.0167097100000006,FALSE,8.69074069,FALSE,0.0005884,0,63
"mp-890","NdIr2",0,6,2,112.265555525826,15.6394745915076,18.710925920971,3,227,5.41485922126179,60.0000067660972,-8.19434317,-8.19434317,-0.712671239166666,0,TRUE,6.90917349,FALSE,2e-07,0,137
"mp-891","TaNi3",0,8,2,96.1093819825678,12.3371738010077,12.013672747821,7,59,4.20694764,90,-7.65714879125,-7.65714879125,-0.357601873749999,0.00317466125,FALSE,7.70388502,FALSE,0,0,129
"mp-892","ScPt",0,2,2,35.5928755096481,11.1987482245198,17.7964377548241,3,221,3.28943285,90,-7.42918415,-7.42918415,-1.2273829375,0,TRUE,5.54919079,FALSE,3e-07,0,99
"mp-893","ZrSi",0,8,2,141.312622326819,5.60793742283877,17.6640777908524,7,62,3.79273916,90,-7.91984573375,-7.88434573375,-0.89783640375,0.0012215287500003,FALSE,6.85526726,FALSE,0,0,54
"mp-894","ZnPt",0,4,2,56.8035905264478,15.2299810299644,14.2008976316119,4,123,3.49456488,90,-4.230722105,-4.230722105,-0.56528364,0,TRUE,5.60020711,FALSE,0,0,108
"mp-898","HoAl3",0,20,2,377.005216198645,5.41484466064444,18.8502608099322,2,166,12.3907484740255,28.2678580937413,-4.3752631295,-4.3752631295,-0.4204790395,0.0033363804999995,FALSE,6.18995736,FALSE,1e-07,0,93
"mp-899","InRh",0,2,2,33.0661263367499,10.9337989513779,16.5330631683749,3,221,3.20967535,90,-5.47182234,-5.47182234,-0.41382654,0,TRUE,9.09954075,FALSE,0.0001683,0,94
"mp-900","RhSe",0,4,2,69.7599450322321,8.65811369195339,17.439986258058,6,194,3.76919334546505,90,-5.6556146925,-5.8916146925,-0.461505018671874,0.112944111666667,FALSE,6.34247231,FALSE,2.51e-05,0,79
"mp-902","BaZn",0,2,2,67.8430964379756,4.96220051680564,33.9215482189878,3,221,4.07851334,90,-1.756738055,-1.756738055,-0.16737878,0.0035235766666665,FALSE,2.03751215,FALSE,5e-07,0,86
"mp-903","ZrCr2",0,6,2,89.8492531123496,7.21573336013949,14.9748755187249,3,227,5.02739670554817,60.0000040724074,-9.31703025,-9.31703025,-0.0324317266666653,0,TRUE,5.37761355,FALSE,0.0013764,0,64
"mp-905","LaF3",6.0448,24,2,326.165275080728,5.9840962205822,13.5902197950303,2,165,7.16720035,90,-6.81330216833333,-7.15980216833333,-4.49219116645833,0,TRUE,2.22094816,FALSE,0.0002573,0,75
"mp-909","As2Se3",1.4466,20,2,561.681862836406,4.57318652461172,28.0840931418203,1,14,4.49068396808055,90,-4.0746164625,-4.3578164625,-0.39662221390625,0.0048000165000008,FALSE,1.60280202,FALSE,0,0,101
"mp-910","NbC",0,2,2,22.9043519532491,7.60636714145861,11.4521759766246,3,225,3.18770178326976,59.9999998703519,-10.123167065,-10.123167065,-0.458181798750001,0.0410321168749998,FALSE,7.21371337,FALSE,0,0,47
"mp-912","LaPt2",0,6,2,119.737058059457,14.6746075154172,19.9561763432428,3,227,5.53241175632776,60.0000028511907,-6.76883337666667,-6.76883337666667,-1.07607546166667,0,TRUE,9.0804874,FALSE,2.6e-06,0,135
"mp-913","CdP2",1.4556,24,2,560.753222837868,4.13057478983657,23.3647176182445,4,96,5.3155021,90,-4.03812870666667,-4.03812870666667,-0.121630448888889,0,TRUE,2.87265022,FALSE,0,0,63
"mp-915","YCd",0,2,2,52.1827702932871,6.40622359278722,26.0913851466436,3,221,3.73687907,90,-4.05042084,-4.05042084,-0.355740403333333,0,TRUE,3.18354758,FALSE,2.2e-06,0,87
"mp-916","DyPt2",0,6,2,111.231233787353,16.5012429263198,18.5385389645588,3,227,5.39817811751604,60.0000010050215,-6.68381482333333,-6.68381482333333,-1.10079699666667,0.0091488980000002,FALSE,6.22889463,FALSE,5e-07,0,144
"mp-917","CaC2",2.3396,6,2,97.2389914447184,2.18923615443158,16.2064985741197,1,12,3.83058725,104.910735081151,-6.80653539333333,-6.80653539333333,0.014441561666666,0.0144415616666666,FALSE,0.80555092,FALSE,0,0,26
"mp-919","HoTe",0,2,2,57.0650833674187,8.51235108862283,28.5325416837093,3,225,4.32143962775857,60.0000112054804,-5.103809325,-5.314809325,-1.45195194333333,0,TRUE,6.55156114,FALSE,1.2e-06,0,119
"mp-921","YRh2",0,6,2,105.763608520532,9.2543900469373,17.6272680867553,3,227,5.30823804462942,60.0000027162298,-7.796654175,-7.796654175,-0.73162522388889,0,TRUE,5.47364455,FALSE,8e-07,0,84
"mp-922","CoPt3",0,4,2,58.135832893799,18.3999201383582,14.5339582234497,3,221,3.87389884,90,-6.384230595,-6.384230595,-0.0538011562499995,0,TRUE,7.17591438,TRUE,2.8540454,4,183
"mp-925","VN",0,2,2,17.5464699760968,6.14647980774884,8.77323498804839,3,225,2.91676597491983,60,-9.68161652,-9.86211652,-1.1519160225,0.19010503,FALSE,8.63172945,FALSE,0.0058653,0,30
"mp-926","PuP",0,2,2,46.3807777148134,9.84469637181477,23.1903888574067,3,225,4.03290203670728,60.0000018344506,-11.034226785,-11.034226785,-1.19365636666667,0,TRUE,9.00019165,TRUE,4.9835392,1,15
"mp-927","CuP2",0.867900000000001,12,2,190.936931878647,4.36556505139086,15.9114109898872,1,14,4.78337532,112.600471726923,-5.08745008083333,-5.08745008083333,-0.112179519722222,0,TRUE,6.84813622,FALSE,0,0,44
"mp-928","HoIr2",0,6,2,106.360846088811,17.1536979763102,17.7268076814686,3,227,5.31821054518312,59.9999960754526,-8.255559955,-8.255559955,-0.835800878333333,0,TRUE,6.87964666,FALSE,0,0,144
"mp-929","ZrCo2",0,6,2,83.5989742705191,8.30638806457389,13.9331623784199,3,227,4.90800912301206,59.9997296100556,-7.89950445833333,-7.89950445833333,-0.311392385000001,0,TRUE,5.40649667,TRUE,4.0298094,6,67
"mp-930","ZrP",0,2,2,37.0453663414128,5.47745042610774,18.5226831707064,3,225,3.74182023786475,60.0000018972015,-8.31161126,-8.31161126,-1.33110969166667,0.0429938112500014,FALSE,6.54539458,FALSE,0,0,55
"mp-931","ThP",0,2,2,50.4991330003145,8.64849314157384,25.2495665001573,3,225,4.14889974186841,59.9999934597084,-7.96706291,-7.96706291,-1.55348253166667,0,TRUE,7.58855934,FALSE,0,0,105
"mp-932","ScGa3",0,4,2,68.0050834686822,6.20518823959123,17.0012708671706,3,221,4.08175681,90,-4.3548616225,-4.3548616225,-0.500672329374999,0,TRUE,4.33781615,FALSE,1e-07,0,83
"mp-933","YAs",0,2,2,49.433768634124,5.50315884107343,24.716884317062,3,225,4.11951639518744,59.9999955876204,-7.11118645,-7.11118645,-1.54839169083333,0,TRUE,4.24484559,FALSE,1e-06,0,72
"mp-934","LiTl",0,2,2,40.6998282778154,8.62195912662298,20.3499141389077,3,221,3.43978152,90,-2.365372665,-2.365372665,-0.229589658333333,0,TRUE,4.86368752,FALSE,1e-07,0,84
"mp-936","Hg4Pt",0,5,2,125.259072164426,13.2229522391126,25.0518144328853,3,229,5.45938511822197,109.471233159207,-1.55133618,-1.55133618,-0.0941652239999999,0,TRUE,2.45929777,FALSE,2e-07,0,318
"mp-938","GeTe",0.8086,2,2,55.9089688107718,5.94728090624202,27.9544844053859,2,160,4.40277633284208,56.812626335014,-3.97538627,-4.18638627,-0.303219395833333,0,TRUE,4.6019005,FALSE,0,0,84
"mp-940","GdN",0,2,2,30.8190019334653,9.22737346851583,15.4095009667327,3,225,3.51920520794859,59.9999934935291,-12.784680225,-12.965180225,-1.7588716425,0,TRUE,4.07549595,TRUE,6.9999888,1,71
"mp-941","Ni5As2",0,42,2,490.247499693355,9.00933393254677,11.6725595165085,6,185,6.74223981,90,-5.70026834547619,-5.70026834547619,-0.240422601190476,0,TRUE,8.59475039,FALSE,2e-07,0,145
"mp-942","AuF3",1.5542,24,2,365.929679851242,6.91466384951265,15.2470699938017,6,178,5.05649033,90,-3.22620581416667,-3.57270581416667,-1.32062608854167,0,TRUE,-1.08446019,FALSE,0,0,97
"mp-943","Co3S4",0,14,2,212.522558352443,4.76714907311824,15.1801827394602,3,227,6.69843903712263,60.0001990523036,-5.84841995357143,-6.135848525,-0.725740974642857,0,TRUE,6.1448687,TRUE,5.9407159,6,102
"mp-944","AlB2",0,3,2,25.2834445669951,3.19213129391621,8.42781485566505,6,191,2.99140227,90,-5.74444134666667,-5.74444134666667,-0.0429882227777772,0.0101366112000071,FALSE,9.75031349,FALSE,1e-07,0,18
"mp-945","NiPt",0,4,2,52.5567445231162,16.0362781501745,13.1391861307791,4,123,3.57832,90,-6.020750925,-6.020750925,-0.0951159249999999,0,TRUE,7.56642852,TRUE,2.5857734,2,106
"mp-946","PrIr2",0,6,2,113.512203782752,15.3701594025375,18.9187006304586,3,227,5.43482947681908,59.9999929611661,-8.16538919833333,-8.16538919833333,-0.679464493333333,0,TRUE,6.97343159,FALSE,0,0,136
"mp-947","Au2S",1.9091,6,2,146.695223835061,9.64430241087081,24.4492039725102,3,224,5.27398218,90,-3.63342936166667,-3.80109602833333,-0.239691406041667,0,TRUE,1.37662535,FALSE,0,0,95
"mp-948","ZnTe",0,2,2,48.0377938580617,6.67180898549139,24.0188969290309,3,225,4.08036816611835,60,-2.3861357,-2.5971357,-0.395610948333333,0.288552085,FALSE,4.79307776,FALSE,1.3e-06,0,82
"mp-949","CoPt",0,4,2,53.426364594255,15.7901619954507,13.3565911485637,4,123,3.72521526,90,-6.675432985,-6.675432985,-0.0857074275,0,TRUE,6.64233402,TRUE,4.8160375,2,105
"mp-950","NaZn13",0,28,2,439.787859584771,6.59481600462938,15.7067092708847,3,226,8.53596737629704,60.0000003601534,-1.31792279892857,-1.31792279892857,-0.0536947829679803,0,TRUE,2.3445224,FALSE,3.2e-06,0,11
"mp-951","CeRh2",0,6,2,108.403441707783,10.5979162403383,18.0672402846305,3,227,5.3520534463041,59.9995811153101,-7.60038140333333,-7.60038140333333,-0.713146438333334,0,TRUE,8.15783511,TRUE,1.4801014,2,103
"mp-952","MoPt2",0,3,2,45.435059033639,17.7660454669853,15.1450196778797,7,71,2.75750400518832,114.352027835762,-8.02124206333333,-8.02124206333333,-0.358603146666667,0,TRUE,8.29270599,FALSE,2e-07,0,120
"mp-953","NbZn3",0,4,2,59.7757128663261,8.03197904175177,14.9439282165815,3,221,3.90998347,90,-3.6339680825,-3.6339680825,-0.163834115,0,TRUE,3.48810935,FALSE,2e-06,0,101
"mp-954","BaB6",0,7,2,78.2054570963525,4.2931706809078,11.1722081566218,3,221,4.27640688,90,-6.40930458857143,-6.40930458857143,-0.409972365,0,TRUE,4.20854871,FALSE,0,0,81
"mp-956","U3Si",0,8,2,152.416826210926,16.1715213824901,19.0521032763658,4,140,6.00945097912332,120.353597797224,-10.0686932725,-10.0509432725,-0.2260562575,0,TRUE,13.64800809,TRUE,3.4373527,6,198
"mp-957","HgSe",0,2,2,49.0110918236651,9.47140083592034,24.5055459118326,3,225,4.10774168383164,60,-1.9541008,-2.1901008,-0.290304878671875,0.151436850000001,FALSE,2.57348704,FALSE,0.000149,0,114
"mp-958","Cr3Rh",0,8,2,99.750799140671,8.61954536112071,12.4688498925839,3,223,4.63773,90,-9.00553709375,-9.00553709375,0.0753254762500006,0.111505570416668,FALSE,6.99036272,FALSE,0.0111463,0,93
"mp-959","LaAl3",0,8,2,179.412013366212,4.06962331470067,22.4265016707765,6,194,6.69457614,90,-4.48443843625,-4.48443843625,-0.441254787499999,0,TRUE,6.98603163,FALSE,2.39e-05,0,83
"mp-960","B2Mo",0,3,2,26.6387501051256,7.32828278268459,8.8795833683752,6,191,3.03049281582584,90,-8.34376057333333,-8.34376057333333,-0.275616022777777,0.156104931666667,FALSE,9.76744158,FALSE,3.3e-06,0,47
"mp-962","SmZn2",0,6,2,123.255519680255,7.57624575158481,20.5425866133758,7,74,4.52578859720527,79.818641170538,-2.79102408333333,-2.79102408333333,-0.378332965,0,TRUE,2.91549876,FALSE,0,0,92
"mp-963","ZrO2",2.8574,12,2,125.745072537619,6.50892378258794,10.4787560448016,7,62,3.387954,90,-9.4004224425,-9.8584224425,-3.711396425,0.103069525833334,FALSE,4.34795643,FALSE,4.86e-05,0,48
"mp-964","Cr3S4",0,14,2,242.070426532169,3.89973623400802,17.2907447522978,1,12,3.49006119938714,88.5448346089137,-7.15938907,-7.44681764142857,-0.946111658928571,0.0005037876190474,FALSE,5.47619685,TRUE,20.0030626,3,96
"mp-965","TbB2",0,3,2,36.8860747873094,8.12788917700864,12.2953582624365,6,191,3.30546358,90,-6.52476155333333,-6.52476155333333,-0.52704500611111,0,TRUE,4.97299234,FALSE,4.7e-06,0,70
"mp-966","NbS2",0,3,2,62.5109188871681,4.17151192958981,20.8369729623894,2,160,3.36953448218663,75.3208049504609,-7.13771932333333,-7.47305265666667,-1.34831773208333,0.0008547049999991,FALSE,3.71110548,TRUE,0.8587013,1,57
"mp-969","YbAl2",0,6,2,123.529632225448,6.10294827464665,20.5882720375746,3,227,5.59021695720128,60.0000036891187,-3.35380873333333,-3.35380873333333,-0.34355542,0,TRUE,4.75332314,FALSE,0,0,83
"mp-971","K2O",1.7072,6,2,129.600976502559,2.41381110140578,21.6001627504265,3,225,6.37500949,90,-3.40844485333333,-3.63744485333333,-1.24828265158333,0,TRUE,0.47156282,FALSE,0,0,27
"mp-972","MnSe",0,2,2,40.8850472449232,5.43824575600738,20.4425236224616,3,225,3.86687294467169,59.9999971418628,-6.669958335,-6.905958335,-0.576994950137392,0.0162713049999974,FALSE,4.96179142,TRUE,4.9958246,1,59