"material_id","formula_pretty","band_gap","nsites","nelements","volume","density","density_atomic","crystal_symmetry","symmetry_number","sides_abc","angles_abc","uncorrected_energy_per_atom","energy_per_atom","formation_energy_per_atom","energy_above_hull","is_stable","efermi","is_magnetic","total_magnetization","num_magnetic_sites","atomic_number"
"mp-5860","K2HgO2",2.0773,5,3,106.788417254406,4.83265237277047,21.3576834508812,4,139,3.90556726031114,105.038834665846,-3.557601744,-3.832401744,-1.3488306077,0,TRUE,-0.13230634,FALSE,0,0,107
"mp-5861","Tm2Fe14B",0,68,3,896.57316572726,8.37524534005682,13.1848994959891,4,136,8.709902,90,-8.01598772588235,-8.01598772588235,-0.121201869558821,0,TRUE,4.51344421,TRUE,123.5481463,64,74
"mp-5862","CrCuS2",0.2197,4,3,65.2657371212173,4.57135021204058,16.3164342803043,2,160,6.43724273925955,31.6618386472645,-6.0236840275,-6.2751840275,-0.7688955590625,0.0375295800000001,FALSE,5.72373347,TRUE,2.9999999,1,69
"mp-5864","FePS3",0,20,3,413.333034408557,2.94098439977139,20.6666517204278,1,12,5.85832785540183,90.0232465557411,-5.508563875,-5.810363875,-0.551829211541667,0.132290191727275,FALSE,3.70589957,TRUE,4e-07,4,73
"mp-5866","MnCuSb",0,3,3,56.3240559539393,7.08284613889932,18.7746853179798,3,216,4.30265283963859,60,-5.69969518666667,-5.76369518666667,0.0330458806896558,0.117282198333333,FALSE,7.32160663,TRUE,4.4525585,2,105
"mp-5867","K3Nb8O21",0,64,3,921.967223206016,4.3101106103322,14.405737862594,6,193,9.3265117222653,90,-8.38568940328125,-8.83653315328125,-2.96084252524219,0.0039722498497596,FALSE,3.04752348,FALSE,0.0468225,0,333
"mp-5868","Sr3Ru2O7",0,12,3,158.190259272445,6.05678296230603,13.1825216060371,4,139,10.5245468438858,158.377292955383,-6.8033738325,-7.2041238325,-2.35044829760417,0.0111921316666547,FALSE,4.3533794,TRUE,4.1201849,3,168
"mp-5869","Ca2CuO3",0,6,3,74.8171752586814,4.25471384176719,12.4695292097802,7,71,3.25500233229733,106.778108037901,-6.01079073833333,-6.35429073833333,-2.52921197770833,0.0017539077777763,FALSE,4.29986781,TRUE,0.2559918,1,65
"mp-5874","TlAgTe",0.638500000000001,12,3,342.207583270675,8.537398175363,28.5172986058896,7,62,4.90800374,90,-2.99796708083333,-3.1386337475,-0.359132066388889,0,TRUE,4.52459592,FALSE,0,0,180
"mp-5878","KZnF3",3.6954,5,3,66.3030927533202,4.04477702936884,13.260618550664,3,221,4.04741679,90,-4.161715822,-4.438915822,-2.8179999301,0,TRUE,-1.19857267,FALSE,0,0,67
"mp-5881","CoSbS",0.3674,24,3,402.439300227398,7.02303764741014,16.7683041761416,7,61,5.82273515,90,-5.49142009458333,-5.72308676125,-0.598497127291666,0,TRUE,8.01181375,FALSE,0,0,94
"mp-5883","CsMo6Se7",0,28,3,698.475196588713,5.99700767174442,24.9455427353112,2,148,10.0347682216104,59.016204219017,-7.09995105428571,-7.33595105428571,-0.875902241738377,0.012166809142859,FALSE,3.71098056,FALSE,0.0020131,0,469
"mp-5884","TmPO4",5.9394,12,3,137.071154510175,6.39413177433898,11.4225962091813,4,141,5.64689555957726,106.116810257913,-8.01025404333333,-8.46825404333333,-3.52227191416667,0,TRUE,2.19876488,FALSE,0,0,108
"mp-5887","EuNiGe",0,12,3,244.694426092849,7.69002232993576,20.3912021744041,1,14,6.17359657039991,59.3796215594651,-7.47874365666667,-7.47874365666667,-0.592021545,0,TRUE,4.82293644,TRUE,27.8309874,4,123
"mp-5889","Er2Ti2O7",2.6986,22,3,252.71561332971,7.12598358141924,11.4870733331686,3,227,7.09657871132218,60,-8.757157155,-9.19433897318182,-3.7804078248106,0.0121765956818187,FALSE,3.0471765,FALSE,0,0,138
"mp-5893","CaSiO3",3.4579,5,3,46.9663258183159,4.10700725534391,9.39326516366317,3,221,3.607964,90,-7.246590582,-7.658790582,-3.20459377325,0.244203541666668,FALSE,6.49469826,FALSE,7.78e-05,0,50
"mp-5898","La(SiNi)2",0,5,3,81.2676415408928,6.38455179545848,16.2535283081786,4,139,4.10362660722916,111.368827607796,-6.252714528,-6.224314528,-0.754931223,0,TRUE,8.68545333,FALSE,9.1e-06,0,99
"mp-5899","NdAlO3",4.354,10,3,105.749134609505,6.88471376219763,10.5749134609505,2,167,5.28525251792578,60.5739747354139,-7.931791437,-8.343991437,-3.67323355775,0,TRUE,4.91897984,FALSE,0,0,89
"mp-5900","Ba2ZrF8",5.9374,44,3,649.950785413596,5.29231109580214,14.7716087593999,7,62,5.61719848,90,-6.3430166675,-6.6790166675,-4.1628819175,0,TRUE,-1.25436448,FALSE,0,0,159
"mp-5901","CeMnSi2",0,8,3,141.984781548885,5.87624951322282,17.7480976936107,7,63,4.00851366,103.0160239333,-7.1103690925,-7.0748690925,-0.588433965732759,0,TRUE,8.27838971,TRUE,6.0647773,4,97
"mp-5905","Y2BeO4",4.2461,28,3,374.236050151024,4.45172365874885,13.3655732196794,7,62,3.563067,90,-8.50998038785714,-8.90255181642857,-3.6941075397619,0.0295211983928567,FALSE,1.597053,FALSE,0.0006432,0,67
"mp-5908","CeAsS",0,6,3,130.717750589188,6.27800767545294,21.7862917648647,4,129,3.945954,90,-6.47261824166667,-6.64028490833333,-1.73073243270833,0.0247097283333319,FALSE,7.50536598,TRUE,0.9392065,2,107
"mp-5909","Zn2GeO4",1.8766,42,3,560.383815647266,4.75517450697215,13.3424718011254,2,148,8.83137532391263,107.815156678783,-5.42448601785714,-5.81705744642857,-1.97001888642857,0,TRUE,-0.12930741,FALSE,0,0,86
"mp-5910","CaCuSb",0,6,3,140.303014621087,5.33500920129657,23.3838357701812,6,194,4.43961598,90,-4.07909079166667,-4.14309079166667,-0.731821528333333,0,TRUE,6.0599396,FALSE,0,0,100
"mp-5913","Pr2Si2O7",5.1705,44,3,617.4747293342,4.84044331418324,14.0335165757773,1,14,8.70469675,67.2603169275305,-8.17573244181818,-8.61291426,-3.60934439193182,0,TRUE,1.64793971,FALSE,0,0,121
"mp-5914","Li3BN2",3.417,24,3,228.062447076756,1.73718802355535,9.50260196153152,4,141,6.99106046540015,123.366922658996,-5.6855323475,-5.80586568083333,-0.959340644027778,0.0030645466666658,FALSE,1.05076288,FALSE,0.0004262,0,18
"mp-5915","TlNO3",2.7867,40,3,596.546689115012,5.93211590713861,14.9136672278753,7,62,6.18047927,90,-5.686033439,-6.098233439,-0.990392597916667,0,TRUE,1.0487879,FALSE,0,0,104
"mp-5916","Yb(SiNi)2",0,5,3,73.7219094414555,7.80689474347737,14.7443818882911,4,139,3.95493757262512,111.15076670246,-5.50813226,-5.47973226,-0.68962872,0,TRUE,6.32628909,FALSE,1e-07,0,112
"mp-5918","Hf2NiP",0,8,3,128.003892312982,11.5883204500305,16.0004865391228,1,11,3.56648881,111.135330763396,-8.749350125,-8.749350125,-0.972395813333332,0,TRUE,6.89467442,FALSE,2e-07,0,115
"mp-5919","SmTiGe",0,6,3,132.050257556631,6.81233408666162,22.0083762594385,4,129,4.0812157,90,-6.39935605166667,-6.39935605166667,-0.653654049444446,0,TRUE,4.75383855,TRUE,0.8942269,4,116
"mp-5920","LiAlGe",0.0526999999999997,3,3,52.8171921281917,3.35025871787911,17.6057307093972,3,216,4.21143501293668,60.0000028240522,-3.71719564333333,-3.71719564333333,-0.291353459444444,0,TRUE,4.9768912,FALSE,2e-07,0,48
"mp-5921","TaAlNi2",0,4,3,52.2657043076037,10.3356550368976,13.0664260769009,3,225,4.19672611072158,60.000007697458,-7.2488620625,-7.2488620625,-0.4579553575,0.0141501270000006,FALSE,7.73960605,FALSE,3.67e-05,0,114
"mp-5924","MgSiO3",5.7928,10,3,90.8110549254392,3.67134504344337,9.08110549254392,2,148,5.34617629371544,53.1896210042633,-7.081699267,-7.493899267,-3.12076642425,0.115378104999997,FALSE,4.80188568,FALSE,0.0001225,0,42
"mp-5925","Nd2MgNi2",0,10,3,216.208599272494,6.60772720242846,21.6208599272494,4,127,3.86694822,90,-4.839118459,-4.839118459,-0.299748804,0,TRUE,4.4564506,FALSE,1.1e-06,0,100
"mp-5926","KCaF3",6.6502,20,3,332.233977300549,2.72239598473269,16.6116988650275,7,62,6.12777352,90,-5.2178075805,-5.4950075805,-3.7249204346,0,TRUE,-2.53366796,FALSE,0,0,57
"mp-5927","Cs2Mn3Te4",0,18,3,672.321136393917,4.64840016173652,37.3511742441065,7,72,6.63345652129315,75.2690554928303,-5.14956159611111,-5.33711715166667,-0.687108907924649,0,TRUE,2.93190504,TRUE,29.9999994,6,261
"mp-5928","Al2CdS4",2.7263,7,3,158.913840855275,3.07872110389559,22.7019772650393,4,82,5.58984342151278,115.7138119569,-4.53331537142857,-4.82074394285714,-1.2550523875,0,TRUE,1.91604263,FALSE,0,0,109
"mp-5929","Na5SiP3",1.1432,36,3,746.97377727894,2.09813815425649,20.7492715910817,1,14,7.27467798000845,59.2628332278018,-3.55506918,-3.55506918,-0.413085622528735,0,TRUE,2.80266352,FALSE,0,0,88
"mp-5932","Nd6Fe13Si",0,40,3,740.292058832999,7.26545786463547,18.507301470825,4,140,12.8248207963181,143.546697267906,-7.27348808275,-7.26993808275,-0.0627141649999998,0.0196503811249995,FALSE,4.3418736,TRUE,53.0415041,38,314
"mp-5933","BaTiO3",1.7261,30,3,400.236753508145,5.8049355247709,13.3412251169382,6,194,5.7456683257952,89.999991834877,-8.00330403633333,-8.41550403633333,-3.48459741825,0.0084029456666652,FALSE,3.00223119,FALSE,0,0,94
"mp-5934","Yb(CuSi)2",0,5,3,78.0097468676285,7.58437342516615,15.6019493735257,4,139,4.01423353742112,110.956226902749,-4.586547784,-4.558147784,-0.440416248,0,TRUE,6.17365272,FALSE,0,0,113
"mp-5936","La(SiRh)2",0,5,3,87.9647150577854,7.56768557492778,17.5929430115571,4,139,4.12364538165713,110.316868094669,-7.17628254,-7.14788254,-1.044830759,0,TRUE,8.56759413,FALSE,2.22e-05,0,116
"mp-5938","SrCu2O3",0,6,3,79.1820008425626,5.50933982031694,13.1970001404271,7,65,6.06106198406181,90,-5.46146072166667,-5.80496072166667,-1.68363190048611,0.0168355724999829,FALSE,3.42672675,FALSE,0,0,83
"mp-5939","PrB2Ru3",0,6,3,82.4904482933963,9.37537496388564,13.7484080488994,6,191,3.052432,119.999997931675,-8.048477805,-8.048477805,-0.387994985555556,0.0270269174999988,FALSE,6.65709711,FALSE,2.41e-05,0,152
"mp-5940","CeB2Ru3",0,6,3,79.0014468927661,9.77278706028651,13.166907815461,6,191,5.51883929,90,-8.36215266,-8.36215266,-0.509639273888888,0,TRUE,8.37334088,FALSE,1.3e-06,0,151
"mp-5942","NaAsS2",1.3553,16,3,377.203299643917,2.8533793246115,23.5752062277448,1,14,5.60396237052025,90,-4.161307279375,-4.412807279375,-0.849171421325432,0,TRUE,1.66796226,FALSE,0,0,60
"mp-5944","MnSbAu",0,3,3,67.4044841823841,9.2053918501044,22.468161394128,3,216,4.56808941158752,60,-5.47081104666667,-5.53481104666667,-0.0131782026436783,0.100131707619048,FALSE,6.18514303,TRUE,4.7025997,1,155
"mp-5945","MnSiO3",2.3995,70,3,845.729359603786,3.60154715153726,12.0818479943398,5,2,6.819431,92.1642107982749,-7.92951468585714,-8.67531468585714,-2.78983479469335,0.0070941201428667,FALSE,3.25239261,TRUE,70.0017624,14,55
"mp-5948","Th(CuSi)2",0,5,3,82.5834258311181,8.3506300155271,16.5166851662236,4,139,4.11342075637399,111.222338533454,-5.870654416,-5.842254416,-0.549672886,0,TRUE,8.85628242,FALSE,2e-07,0,133
"mp-5950","Cd2Os2O7",0,22,3,273.885411731039,8.69756297699093,12.4493368968654,3,227,7.28944784174,60,-6.38976862318182,-6.82695044136364,-1.46991995420454,0,TRUE,3.44205148,TRUE,0.4843844,4,172
"mp-5951","CeMnNi4",0,6,3,83.3511195727351,8.56311948880707,13.8918532621225,3,216,4.90315337406633,60,-6.63901634166667,-6.63901634166667,-0.269741147155172,0.0339859402059419,FALSE,7.74746711,TRUE,4.9086442,6,167
"mp-5955","NaSbF6",4.8892,8,3,141.361871001442,3.03934991824001,17.6702338751803,3,225,5.84721421898915,60.0000114402485,-4.63561421375,-4.98211421375,-2.86706417144397,0,TRUE,-4.08593426,FALSE,0,0,107
"mp-5957","EuTaO4",0,12,3,153.168578133409,8.60599093463978,12.7640481777841,1,13,5.20794999613336,89.9987836005532,-9.8850388375,-10.3430388375,-3.35944979166667,0,TRUE,2.1976706,TRUE,2e-07,2,160
"mp-5960","Ca3UO6",2.1479,20,3,281.654908553513,5.35630878578097,14.0827454276757,1,14,5.71412899564599,90,-7.8694794795,-8.2816794795,-3.58284528775,0.0376945309999996,FALSE,2.90668919,FALSE,0,0,172
"mp-5962","NaMgAs",0.9548,6,3,136.453319487938,2.97457117978566,22.7422199146563,4,129,4.38585587,90,-3.16370392833333,-3.16370392833333,-0.636396012183908,0,TRUE,2.33059048,FALSE,0,0,56
"mp-5965","Tb3Ga5O12",3.2791,80,3,934.615722282238,7.23037538691326,11.682696528528,3,230,10.6680487369394,109.471220634491,-6.978683613625,-7.390883613625,-2.97069146625,0,TRUE,2.01812397,FALSE,0,0,254
"mp-5966","Cd2SnO4",0.3998,14,3,179.316921737477,7.54774078250795,12.8083515526769,7,55,3.20739624,90,-4.98875632,-5.38132774857143,-1.71816971714286,0,TRUE,3.06121705,FALSE,0,0,122
"mp-5967","TiCoSb",1.0432,3,3,50.2224418954328,7.55704259974919,16.7408139651443,3,216,4.14130831756265,60.0000056350294,-7.03877401333333,-7.10277401333333,-0.725170329444444,0,TRUE,7.3977234,FALSE,0,0,100
"mp-5970","Ba(CuS)2",0.9028,20,3,388.013535306531,5.62422080829076,19.4006767653265,7,62,4.03982642,90,-4.603818249,-4.805018249,-1.12696064625,0,TRUE,5.2748822,FALSE,0,0,101
"mp-5971","YBPt2",0,12,3,195.671403841775,12.4720257879625,16.3059503201479,6,180,5.32859997,90,-7.32333027416667,-7.32333027416667,-1.001297893125,0,TRUE,5.97491908,FALSE,2e-07,0,122
"mp-5972","CsPd2F5",0,16,3,274.290689050524,5.33639538473364,17.1431680656578,7,74,7.40989878800756,128.159439878113,-4.20983850125,-4.49858850125,-1.89701839755388,0,TRUE,0.31779218,TRUE,4,2,137
"mp-5974","La2Si2O7",4.6513,88,3,1160.36528928939,5.10572639109192,13.1859691964703,4,76,6.82970456246298,90,-8.26076889863636,-8.69795071681818,-3.66618060329545,0.0085815318181765,FALSE,4.46825423,FALSE,0.2400851,0,119
"mp-5976","Dy(CoSi)2",0,5,3,71.8146802590327,7.78160511821413,14.3629360518065,4,139,3.84942194985101,110.258974583695,-6.765355828,-6.736955828,-0.802144129999999,0,TRUE,6.67458432,FALSE,3.1e-06,0,107
"mp-5977","Nd2Zr2O7",3.3281,22,3,306.595629867142,6.31433908778575,13.936164993961,3,227,7.56879924276679,60,-8.97494036409091,-9.41212218227273,-3.84316608193182,0,TRUE,2.18428119,FALSE,0,0,148
"mp-5979","Mn3(P3Pd10)2",0,29,3,442.828101862185,9.29609140201176,15.2699345469719,3,225,8.55559182991907,60,-6.07606083344828,-6.07606083344828,-0.435940243234245,0.0021799817558996,FALSE,5.76301367,TRUE,14.3533193,3,80
"mp-5981","Ce2Ga12Cu",0,30,3,567.988032740168,6.90222282982833,18.9329344246723,4,125,6.11540931029282,89.9996568642286,-3.82287126133333,-3.82287126133333,-0.336035444666666,0,TRUE,4.99128162,TRUE,4.2437272,4,87
"mp-5982","La(NiAs)2",0,5,3,84.7959745057695,7.95325271273421,16.9591949011539,4,139,4.11067496601216,110.75756894578,-6.00119713,-6.00119713,-0.838293675,0.0344521520000018,FALSE,8.56282464,FALSE,2e-07,0,118
"mp-5983","Tm(CoGe)2",0,5,3,75.7515838424063,9.47157379194379,15.1503167684813,4,139,3.89502222313298,109.969971949552,-6.185462128,-6.185462128,-0.597756783333334,0,TRUE,6.04370847,FALSE,2.94e-05,0,128
"mp-5984","Y(BRh)4",0,18,3,213.603687531045,8.45448325990271,11.8668715295025,4,137,5.347098,90,-7.535940305,-7.535940305,-0.575799229814815,0.0126497084259273,FALSE,6.85014273,FALSE,0.0002143,0,179
"mp-5985","HoTaO4",4.0406,12,3,145.597683029016,9.3492528753811,12.133140252418,1,13,5.09662434376927,90,-9.32099359333333,-9.77899359333333,-3.74117003583333,0,TRUE,2.19894786,FALSE,0,0,164
"mp-5986","BaTiO3",1.728,5,3,65.3270996925463,5.92747512056749,13.0654199385093,4,99,3.99037921,90,-8.008499606,-8.420699606,-3.48979298791667,0.0032073760000006,FALSE,3.06901686,FALSE,0,0,94
"mp-5990","CsLi(B3O5)2",5.0778,36,4,521.113525895724,2.32428935779421,14.4753757193257,4,122,8.80481656857206,106.563859388664,-7.59094568,-7.97261234666667,-2.84219218132024,0.0007770066666665,FALSE,-1.11778931,FALSE,0.0001549,0,100
"mp-5992","LaB2Ir2C",0,6,4,79.6954433142205,11.6051057479838,13.2825738857034,4,139,3.893742,109.152912691902,-8.10853979333333,-8.10853979333333,-0.575152376805555,0,TRUE,8.78891786,FALSE,9e-07,0,145
"mp-5996","Na2Ti2Si2O9",3.263,60,4,685.362005495285,3.31330690106859,11.4227000915881,7,60,5.287007,90,-7.6720712065,-8.0842712065,-3.16381326773468,0,TRUE,2.10158719,FALSE,0.0036088,0,111
"mp-5997","KMn6P7O24",3.6268,76,4,939.110355331442,3.4286491421044,12.3567152017295,1,11,27.117624,72.7382894654134,-7.50650542736842,-8.20376858526316,-2.60650181378736,0,TRUE,2.62823678,TRUE,20,12,242
"mp-5999","Sm2Ti2S2O5",0.7799,11,4,171.519810993954,5.23354045203174,15.5927100903594,4,139,3.84291,99.2700642832422,-8.18470582272727,-8.58843309545455,-3.29438767787879,0,TRUE,3.51072853,FALSE,0,0,132
"mp-6000","La2Ti3(AgO5)2",1.9408,17,4,218.432622339984,6.05992815098223,12.8489777847049,4,139,14.8832933949955,165.082978171418,-7.87846670235294,-8.28258434941177,-3.06549673887255,0.0585859780882334,FALSE,4.24519747,FALSE,0.0017837,0,180
"mp-6008","Ca3Al2(SiO4)3",4.8673,80,4,857.31913425188,3.48987338257299,10.7164891781485,3,230,10.3654493976419,109.471220634491,-7.491403816875,-7.903603816875,-3.446395320625,0.0009067950972081,FALSE,3.75738191,FALSE,0.0001371,0,91
"mp-6011","Ba4LiMo2N7",1.5654,56,4,1064.83480174368,5.27822019665223,19.0149071739943,1,13,6.555277,62.7028053626995,-7.20710612660714,-7.38760612660714,-0.985349889345238,0,TRUE,2.63861912,FALSE,0.0004182,0,255
"mp-6013","KTa(CuSe2)2",1.6646,16,4,431.112101753998,5.10726172480106,26.9445063596249,7,40,10.0506846693506,90,-5.13007081125,-5.36607081125,-0.972291332796876,0.0002382910416622,FALSE,2.04633794,FALSE,3.49e-05,0,155
"mp-6015","LiSiNO",5.2544,16,4,160.758448349985,2.68699216771412,10.0474030218741,7,29,4.781481,90,-7.013913986875,-7.275913986875,-2.12155785364583,0,TRUE,3.19439941,FALSE,0,0,32
"mp-6016","NdAlGe2O7",3.6023,44,4,551.446084520541,5.1612653474634,12.532865557285,1,14,6.596161,62.2660408997466,-7.18599835659091,-7.62318017477273,-2.86076199738636,0,TRUE,2.19035637,FALSE,0.002308,0,153
"mp-6017","Na3In(PO4)2",3.2677,28,4,326.495363395346,3.80154444938024,11.6605486926909,1,12,5.44753408,90.168109332624,-6.24017363785714,-6.63274506642857,-2.5527897583087,0,TRUE,2.29467417,FALSE,0,0,110
"mp-6018","Ba3NdRu2O9",0,30,4,466.696523926938,6.42130365246943,15.5565507975646,6,194,6.00984350049259,90,-7.068759039,-7.480959039,-2.57468732341667,0,TRUE,3.59961522,TRUE,6.004636,4,280
"mp-6023","Tl2Sn(AsS3)2",0.978899999999999,11,4,296.987062495495,4.86279465297172,26.9988238632268,2,147,6.76597591565274,90,-4.20180455636364,-4.47616819272727,-0.578732360037879,0,TRUE,3.13829492,FALSE,0,0,196
"mp-6026","Na2Mg(CO3)2",4.4192,11,4,119.874895839319,2.63611880896059,10.8977178035744,2,148,6.24704537499016,47.162907631283,-6.64357091909091,-7.01829819181818,-2.25622602005486,0,TRUE,1.33720201,FALSE,0,0,45
"mp-6027","Ba2Tl2CuO6",0,22,4,368.038538601774,7.60666531562839,16.7290244818988,7,64,12.2831276162659,90,-5.26155397136364,-5.63628124409091,-1.78695623401515,0.0059215576010078,FALSE,4.11316201,FALSE,5.8e-05,0,206
"mp-6030","Be3Al2(SiO3)6",5.3195,58,4,695.433013904198,2.56686915331081,11.9902243776586,6,192,9.30347191738358,90,-7.67995917568966,-8.1063729687931,-3.26838347784483,0,TRUE,1.75763828,FALSE,0.002555,0,51
"mp-6031","Li16Nb2N8O",3.3829,27,4,266.189655421809,2.65073855559986,9.85887612673366,2,148,9.19828903298869,38.1131465875114,-5.41038583407407,-5.54279324148148,-1.01005160970679,0,TRUE,1.06525818,FALSE,0.0010389,0,98
"mp-6032","SrSi2(BO4)2",5.4873,52,4,597.828765024447,3.25990187869841,11.4967070197009,7,62,7.986202,90,-7.82193604576923,-8.24470527653846,-3.20836506538461,0,TRUE,1.9663824,FALSE,0.0001206,0,81
"mp-6036","CaCu3(RuO3)4",0,20,4,210.880298921289,6.51197488369085,10.5440149460645,3,204,6.49460336315952,109.471220634491,-6.5982330855,-7.0104330855,-1.47237835625,0.0272692275000165,FALSE,5.32903724,TRUE,3.5827867,7,138
"mp-6037","Ba2SmSbO6",3.6054,10,4,160.311182767462,6.65795948622209,16.0311182767462,3,225,6.09760946255514,60,-6.86585242,-7.27805242,-3.04148546775,0,TRUE,2.87984935,FALSE,2.23e-05,0,209
"mp-6040","BaBPO5",5.495,24,4,319.603363817803,4.03869549424994,13.3168068257418,2,154,7.22841523346197,90,-7.53169776083333,-7.96107276083333,-3.11793366411458,0,TRUE,1.67429113,FALSE,0.0019355,0,108
"mp-6044","Sr6B(PO4)5",4.8124,64,4,941.69438532407,3.56686627033475,14.7139747706886,4,120,11.8945020736386,130.845819529968,-7.2847468140625,-7.7141218140625,-3.25110183752604,0,TRUE,1.17067629,FALSE,0.0001877,0,234
"mp-6046","Na4UC3O11",2.1523,76,4,944.226656802695,3.81279034436295,12.4240349579302,2,165,9.24123292,90,-7.22024914263158,-7.61798598473684,-2.42424474868194,0,TRUE,0.41399235,FALSE,0.0018316,0,137
"mp-6049","Ba4Tb(RuO4)3",0,20,4,302.459067607067,6.60701878453786,15.1229533803534,2,166,10.4388883822025,33.1308202840666,-7.078164231,-7.490364231,-2.51567733025,0.002422103833334,FALSE,3.62935765,TRUE,5.0003405,3,301