"material_id","formula_pretty","band_gap","nsites","nelements","volume","density","density_atomic","crystal_symmetry","symmetry_number","sides_abc","angles_abc","uncorrected_energy_per_atom","energy_per_atom","formation_energy_per_atom","energy_above_hull","is_stable","efermi","is_magnetic","total_magnetization","num_magnetic_sites","atomic_number"
"mp-4438","CaSnO3",2.3301,20,3,248.805712192398,5.52039678684277,12.4402856096199,7,62,5.52398931,90,-6.4252761195,-6.8374761195,-2.66642854575,0.0140191064999992,FALSE,4.10175427,FALSE,0,0,86
"mp-4439","Pr(SiNi)2",0,5,3,79.0387210260873,6.60666263373111,15.8077442052175,4,139,4.05868358136746,111.282817984104,-6.231350604,-6.202950604,-0.764587569,0,TRUE,6.94089032,FALSE,6.61e-05,0,101
"mp-4441","Ca(CuGe)2",0,5,3,86.1343307746114,6.02356141498112,17.2268661549223,4,139,4.11783586933527,110.5881446901,-4.263347752,-4.263347752,-0.373333966,0,TRUE,5.85925787,FALSE,4e-07,0,81
"mp-4445","Hg3AsO4",0.5021,32,3,561.606405457975,8.76018037440805,17.5502001705617,1,14,5.12340039,57.5830848298025,-3.880672955625,-4.224172955625,-1.0545586625,0.005534175624998,FALSE,0.604936,FALSE,0,0,217
"mp-4446","Sr3(GaO3)2",3.5,264,3,4334.55376541777,4.5815130061996,16.4187642629461,3,205,16.30477455,90,-6.15331001753788,-6.52803729026515,-2.81850959276515,0.0016157510984848,FALSE,1.07999862,FALSE,0,0,123
"mp-4448","Y3AlC",0,5,3,116.671310432199,4.35105292922317,23.3342620864399,3,221,4.88638886,90,-6.8927995,-6.8927995,-0.418068567499999,0,TRUE,3.53300214,FALSE,5.4e-06,0,97
"mp-4449","Tl2SeO4",3.2312,28,3,527.817469618108,6.94300314653474,18.8506239149324,7,62,5.84525762,90,-4.84406547392857,-5.2366369025,-1.23550081450149,0.0010351735714291,FALSE,1.11334685,FALSE,0,0,139
"mp-4450","UPS",0,6,3,119.66624193804,8.35548309948881,19.9443736563399,4,129,3.80280742,90,-8.106549275,-8.27421594166667,-1.32716181381944,0,TRUE,10.25163969,TRUE,5.094621,2,123
"mp-4452","Cd(GaS2)2",2.1205,7,3,159.945759294598,3.94633237644152,22.8493941849425,4,82,5.59116484961875,115.617047913,-4.04554637,-4.33297494142857,-0.972277616785714,0,TRUE,1.39469697,FALSE,0,0,95
"mp-4453","TlNO2",1.6391,12,3,213.343579468741,5.84663084693411,17.7786316223951,2,152,5.70338449230279,90,-5.5758408,-5.9193408,-0.771211926458334,0.101756769166667,FALSE,1.77304242,FALSE,0,0,96
"mp-4454","CeCo3B2",0,6,3,65.6143563613713,8.56755924433439,10.9357260602286,6,191,5.11883367031403,90,-7.26017546166667,-7.26017546166667,-0.490704448055555,0,TRUE,7.70748085,TRUE,0.6714493,4,117
"mp-4458","Th(MnSi)2",0,5,3,83.452233013803,7.92112948372496,16.6904466027606,4,139,3.97541715739314,109.407026768944,-7.937104846,-7.908704846,-0.590999867172412,0,TRUE,7.81518517,TRUE,4.3621793,2,129
"mp-4459","Ce2Fe14B",0,68,3,914.947306276149,7.78863446137142,13.4551074452375,4,136,8.750929,90,-8.13730306514706,-8.13730306514706,-0.0710755933333306,0.0193582513235313,FALSE,5.73941256,TRUE,116.5061581,64,63
"mp-4466","Tb(SiNi)2",0,5,3,74.0647651355586,7.45430379142813,14.8129530271117,4,139,3.9518595542096,111.036520516459,-6.265704854,-6.237304854,-0.82824975,0,TRUE,7.16262673,FALSE,2e-07,0,107
"mp-4468","CuSbS2",0.7227,16,3,334.643495390859,4.95091915212826,20.9152184619287,7,62,3.80157474,90,-4.36802289375,-4.61952289375,-0.4942459828125,0,TRUE,5.81889082,FALSE,1e-07,0,96
"mp-4469","Tm(SiNi)2",0,5,3,72.0295671775173,7.89566541753251,14.4059134355035,4,139,3.902426403449,110.874874281239,-6.22980769,-6.20140769,-0.824058721333333,0,TRUE,7.19164005,FALSE,0,0,111
"mp-4471","ScAlO3",4.5919,20,3,191.070079357462,4.16931492296697,9.55350396787312,7,62,4.97364,90,-8.241807197,-8.654007197,-3.67038498325,0.0280202173750012,FALSE,4.99994749,FALSE,0.0002334,0,50
"mp-4472","BMo2C",0,8,3,84.0722443358255,8.48129042663156,10.5090305419782,7,63,8.90755537089167,90,-9.64481737875,-9.64481737875,-0.244978007916666,0.0483452753125011,FALSE,9.49496717,FALSE,1.38e-05,0,53
"mp-4473","Ba(CuSe)2",0.488700000000001,20,3,436.431231148821,6.42768306935975,21.8215615574411,7,62,4.20938168,90,-4.3035102715,-4.4923102715,-1.0704680244375,0.0040221209999993,FALSE,4.70094078,FALSE,0,0,119
"mp-4474","V4GaS8",0,13,3,228.768336183892,3.84712615753844,17.5975643218379,3,216,6.86494594440389,60.0002285832862,-6.48886838307692,-6.79840684461538,-1.22492074942308,0,TRUE,5.1110585,TRUE,5.0000001,4,212
"mp-4475","Tl(CoSe)2",0,5,3,101.716941471401,7.83881738192443,20.3433882942803,4,139,7.33830388804668,149.465895564835,-4.938154008,-5.126954008,-0.412733669604167,0.0464635525249983,FALSE,5.22066731,TRUE,1.9757935,2,142
"mp-4476","HoCuSi",0,6,3,108.777752478067,7.83305253882493,18.1296254130112,6,194,4.10003529,90,-5.372051705,-5.34838503833333,-0.646073848333334,0,TRUE,5.75501693,FALSE,1e-07,0,110
"mp-4478","CaSiPt",0,12,3,256.238099933776,6.82385262843829,21.3531749944814,3,198,6.35157214,90,-5.47657995416667,-5.4529132875,-0.952229544166666,0,TRUE,5.41119814,FALSE,0,0,112
"mp-4481","Ca2SiO4",4.1994,28,3,386.126501373357,2.96286065140577,13.7902321919056,7,62,5.08711656,90,-7.25954024178571,-7.65211167035714,-3.47735843678571,0,TRUE,1.69778287,FALSE,0,0,58
"mp-4482","NaSbO3",2.7012,10,3,128.83098377675,4.96876641960438,12.883098377675,2,148,6.10526813783128,51.530231861638,-5.707553534,-6.119753534,-2.06143500056035,0,TRUE,2.19702076,FALSE,0,0,78
"mp-4483","AgAsSe2",0,4,3,87.7619506906433,6.44655148183472,21.9404876726608,2,166,3.92537371719675,73.6117515926403,-3.69147242,-3.92747242,-0.306598079088542,0.0405546443750006,FALSE,4.04362086,FALSE,0,0,114
"mp-4484","Ba(PRu)2",0,5,3,100.291783530134,6.64625232038442,20.0583567060267,4,139,4.03674281639884,107.308042002384,-7.200781464,-7.200781464,-0.941904457333334,0,TRUE,5.96847225,FALSE,0,0,115
"mp-4487","Er(MnGe)2",0,5,3,89.5369204816747,7.83405052902078,17.9073840963349,4,139,4.04779485614296,109.152384675749,-6.902721188,-6.902721188,-0.475160167172414,0,TRUE,5.82013051,TRUE,7.3044633,3,125
"mp-4488","Sr(FeAs)2",0,5,3,89.8588304891419,6.45214861658433,17.9717660978284,4,139,3.92408881055758,107.676594224713,-6.123797794,-6.123797794,-0.534243257333333,0,TRUE,5.08129923,FALSE,1.26e-05,0,97
"mp-4492","MnCo2Si",0,4,3,43.5505633040378,7.65973066353669,10.8876408260095,3,225,3.94914279505722,60.0000079801985,-7.655659085,-7.637909085,-0.436916856982759,0,TRUE,7.54046291,TRUE,5.0000746,3,66
"mp-4494","NaYbS2",0,4,3,93.3255722308938,4.62901485755985,23.3313930577234,2,166,7.01877670265902,33.4042746119541,-4.0728879,-4.3243879,-1.54062957320043,0.247821058125,FALSE,0.92181153,FALSE,0.0272996,0,97
"mp-4495","KLiTe",2.4134,6,3,180.185073416466,3.20042982118327,30.030845569411,4,129,4.83709739,90,-3.12973303166667,-3.27039969833333,-1.21619046266667,0,TRUE,1.40742506,FALSE,0,0,74
"mp-4497","Si2N2O",4.9248,10,3,118.865938906372,2.79910486167913,11.8865938906372,7,36,4.85861452,116.472148435648,-8.132052492,-8.413852492,-1.91978956775,0,TRUE,3.86893619,FALSE,0,0,29
"mp-4499","MgAlSi",0,12,3,215.15644836237,2.45031690928459,17.9297040301975,7,62,3.973346,90,-3.62937588416667,-3.6057092175,-0.0153179141666666,0.0490447891666656,FALSE,6.76044699,FALSE,0.0023516,0,39
"mp-4500","ZrNbP",0,12,3,206.27059232846,6.92660698059558,17.1892160273717,7,62,3.58361505,90,-9.10011076083333,-9.10011076083333,-1.07934136861111,0,TRUE,6.83390556,FALSE,6e-07,0,96
"mp-4502","Ta6Si7Ni16",0,29,3,346.197901853582,10.6548553613736,11.9378586846063,3,225,7.88139418437279,60.0030659393585,-7.55595599551724,-7.55595599551724,-0.604022241379311,0,TRUE,8.97037165,FALSE,0.0001285,0,449
"mp-4505","La3AlN",0,5,3,132.457429754041,5.73796767290466,26.4914859508081,3,221,5.09751599,90,-6.140249378,-6.212449378,-0.834430964000001,0,TRUE,7.72370315,FALSE,0.0349912,0,134
"mp-4508","ErInPd",0,9,3,191.027745437094,10.1312159280444,21.2253050485661,6,189,7.66277066,90,-4.98149597555556,-4.98149597555556,-0.815067858888889,0,TRUE,5.81568734,FALSE,0,0,163
"mp-4510","DyNiSb",0.3123,3,3,62.8465800111449,9.0615514578885,20.948860003715,3,216,4.46271131767561,60.000008035513,-5.74258879666667,-5.80658879666667,-0.96794721,0,TRUE,6.56310384,FALSE,0,0,145
"mp-4511","La2SO2",3.064,5,3,98.9184733723725,5.7390327842673,19.7836946744745,2,164,4.05373495,90,-7.964023348,-8.339423348,-3.559055048125,0,TRUE,5.71306167,FALSE,0,0,81
"mp-4513","Ho2Ga8Co",0,11,3,191.960666407203,8.18828931996335,17.4509696733821,4,123,4.17770732,90,-4.16671734090909,-4.16671734090909,-0.485089730454546,0.0078189699999979,FALSE,3.99285168,FALSE,1e-07,0,311
"mp-4514","NaNbO3",2.5296,10,3,121.690037566684,4.47288825307971,12.1690037566684,2,161,5.61719857249983,58.7298080161748,-7.676002963,-8.088202963,-2.83542366956035,0.0108596389999995,FALSE,1.39056418,FALSE,0,0,68
"mp-4515","Ag3SbS3",0.9521,14,3,318.631217912923,5.6446501292791,22.7593727080659,2,161,7.00642862590272,101.769265892365,-3.709197125,-3.92476855357143,-0.348194432053571,0.0017614914285704,FALSE,3.41235884,FALSE,0,0,177
"mp-4519","KPrO2",3.6626,4,3,72.3140492872416,4.86824030945087,18.0785123218104,2,166,6.58403980104747,32.2687858471439,-6.5259311,-6.8694311,-2.923260568875,0,TRUE,0.99480343,FALSE,0,0,86
"mp-4520","Y(CuGe)2",0,5,3,83.4627773839098,7.18782674895633,16.692555476782,4,139,4.03071877229155,110.062595333912,-5.287318444,-5.287318444,-0.505130411333334,0,TRUE,6.65740577,FALSE,0,0,100
"mp-4521","Tb(CuGe)2",0,5,3,83.3248662104114,8.59510649783157,16.6649732420823,4,139,4.03208400810206,110.105310202122,-4.925785662,-4.925785662,-0.510018632,0,TRUE,6.62134763,FALSE,2e-07,0,126
"mp-4524","ZnGeP2",1.1782,8,3,158.907389085049,4.17981873842833,19.8634236356311,4,122,5.44247751954515,114.340732094621,-4.38731656875,-4.38731656875,-0.209972449166667,0,TRUE,4.11855147,FALSE,0,0,77
"mp-4525","SrRuO3",0,10,3,121.717079213735,6.45809125953598,12.1717079213735,4,140,5.58551593072142,120.786133722182,-6.930185074,-7.342385074,-2.18159264858333,0.0103692919999938,FALSE,4.57937706,TRUE,4.0143909,2,98
"mp-4527","Li8SnO6",4.2994,15,3,129.973313268564,3.45251472825032,8.66488755123762,2,148,5.96708190503612,54.221259788114,-5.13278705,-5.40758705,-2.14351457961111,0,TRUE,1.36872277,FALSE,0,0,111
"mp-4529","K2SO4",5.2168,28,3,426.889023508338,2.71137643162016,15.2460365538692,7,62,5.73672509,90,-5.62089820321429,-6.01346963178571,-2.27861211666071,0,TRUE,-0.05204669,FALSE,0,0,59
"mp-4530","Cd2SiO4",1.463,14,3,176.437916180289,5.9650817732064,12.6027082985921,7,70,5.76563583431617,103.600635828725,-5.69943650285714,-6.09200793142857,-2.22660044642857,0,TRUE,1.67866465,FALSE,1e-07,0,86
"mp-4531","NaNO3",2.9451,10,3,120.006201502035,2.35216125542969,12.0006201502035,2,167,6.16863324575319,48.3117392302561,-5.855773277,-6.267973277,-1.36815600656034,0,TRUE,-0.51481965,FALSE,0,0,34
"mp-4533","Na2SiO3",3.8657,12,3,151.978621166753,2.66735906232759,12.6648850972294,7,36,4.78317068,119.994302521513,-6.17478635083333,-6.51828635083333,-2.69988055905891,0,TRUE,1.19803672,FALSE,0,0,41
"mp-4534","NaCO2",3.4095,16,3,184.10643722175,2.41718661774091,11.5066523263594,1,14,5.23730234,87.684723621825,-6.65027750125,-6.99377750125,-1.88263544913793,0.0068183061458348,FALSE,-0.00810669,FALSE,0,0,25
"mp-4535","PrGaO3",3.3909,20,3,242.177382320271,7.09336776308666,12.1088691160136,7,62,5.508641,90,-7.155301809,-7.567501809,-3.03768822675,0.0292606008571372,FALSE,3.18398125,FALSE,0,0,106
"mp-4536","ScNi2Sn",0,4,3,59.9803535331169,7.78086457580149,14.9950883832792,3,225,4.39381081843431,59.9999959889598,-6.0272517375,-6.0272517375,-0.5516731575,0,TRUE,8.39195959,FALSE,3.99e-05,0,99
"mp-4537","Ce(SiNi)2",0,5,3,76.85373250701,6.77738845047462,15.370746501402,4,139,4.0328264230294,111.428679488292,-6.476851822,-6.448451822,-0.779652107,0,TRUE,8.68017934,TRUE,0.5282718,1,100
"mp-4538","TaSnS2",0,8,3,168.444067348993,7.17251721835964,21.0555084186242,6,194,3.32871521,90,-6.87967995,-7.13117995,-1.0961176453125,0.0033886012500001,FALSE,6.50631177,FALSE,6e-07,0,139
"mp-4539","Ho(CuGe)2",0,5,3,82.3617911746508,8.8166803552751,16.4723582349302,4,139,4.00386481674274,109.954331088348,-4.892554898,-4.892554898,-0.487179314,0,TRUE,6.62306078,FALSE,4e-07,0,128
"mp-4541","NaCuO2",0.4997,4,3,45.3066896099649,4.34441987985705,11.3266724024912,1,12,3.45630026770844,62.2650988024422,-4.8328529675,-5.1763529675,-1.34757562101293,0.0076800862499997,FALSE,2.07426012,FALSE,0,0,48
"mp-4544","Ba2CoS3",0,24,3,636.987500735892,4.48153299147703,26.5411458639955,7,62,4.212704,90,-5.24514964291667,-5.49664964291667,-1.60404676364583,0.18900242548611,FALSE,3.3362191,TRUE,0.7470407,2,115
"mp-4547","La2TeO2",2.0287,5,3,111.863454998086,6.49305853635376,22.3726909996172,4,139,4.128218244825,106.698222402384,-7.610014202,-7.969214202,-3.38747469683333,0,TRUE,6.89197655,FALSE,0,0,117
"mp-4549","SrSiN2",2.9715,16,3,221.009230410212,4.31929196107913,13.8130769006383,1,14,5.51387146465153,90,-7.123251675,-7.303751675,-1.35680134166667,0,TRUE,4.63609269,FALSE,0,0,59
"mp-4551","SrHfO3",3.7226,5,3,71.0199731386492,7.34425703345636,14.2039946277298,3,221,4.141206,90,-8.665907392,-9.078107392,-3.78075766858333,0.0329575589999997,FALSE,2.46646277,FALSE,0,0,126
"mp-4552","ErInCu2",0,4,3,71.7187334198086,9.47369086072001,17.9296833549521,3,225,4.66354175597989,60,-4.2026378375,-4.2026378375,-0.3231838675,0.0231987083333331,FALSE,6.33114191,FALSE,1.87e-05,0,146
"mp-4555","Ca(AsO3)2",3.3115,9,3,103.842586883906,4.57208702975883,11.5380652093229,2,162,4.84855585,90,-6.32876591666667,-6.78676591666667,-2.23076936583333,0,TRUE,2.18515948,FALSE,0,0,69
"mp-4556","Li2SO4",6.1674,28,3,322.254895286577,2.2661229496527,11.5091034030921,1,14,4.92078882,72.1953838098992,-5.88256740607143,-6.27513883464286,-2.31213162818452,0,TRUE,-0.57835903,FALSE,0,0,43
"mp-4558","Li4GeO4",4.1565,18,3,170.011213275611,3.21149733775482,9.44506740420063,7,63,5.31750645687066,90,-5.55372749055556,-5.85906082388889,-2.29845258314815,0,TRUE,0.06373148,FALSE,0,0,65
"mp-4559","BaCO3",4.3635,5,3,75.0831109614839,4.36428335209454,15.0166221922968,2,160,4.3165931256854,77.0271660412359,-7.447502646,-7.859702646,-2.66216133275,0.0218447350000001,FALSE,0.86604909,FALSE,0,0,78
"mp-4561","UAl3Pd2",0,6,3,106.44080387424,8.29660340390293,17.7401339790401,6,191,5.38423090082381,90,-6.060794845,-6.060794845,-0.579477991666666,0.0796314472916668,FALSE,8.04004536,TRUE,2.2050571,1,164
"mp-4562","La(GeRh)2",0,5,3,93.2998925736324,8.72089193767243,18.6599785147265,4,139,4.19426215965164,110.189178071999,-6.687690784,-6.687690784,-0.905555073,0,TRUE,7.80419796,FALSE,1.1e-06,0,134
"mp-4563","Ti3TlC",0,5,3,76.4520646942449,7.81909244271419,15.290412938849,3,221,4.24420109,90,-7.49669618,-7.49669618,-0.441139242166668,0.0175833683333328,FALSE,7.72726069,FALSE,0.0006109,0,131
"mp-4564","Ba4Nb14O23",0,41,3,552.191700971206,6.66987257786954,13.4680902675904,7,65,12.2365346022077,90.0000388513116,-8.83801444926829,-9.22340469317073,-2.81198979856707,0,TRUE,5.33040667,FALSE,5.3e-06,0,176
"mp-4571","CaZrO3",3.8263,20,3,258.726500786365,4.60308450575054,12.9363250393183,7,62,5.58500572,90,-8.3374117745,-8.7496117745,-3.67093844575,0,TRUE,1.9903747,FALSE,0,0,76
"mp-4573","TlSbTe2",0.1268,4,3,136.571739676206,7.06839689561593,34.1429349190516,2,166,8.31896380633963,31.1352725878234,-3.42530714,-3.63630714,-0.441743096666666,0,TRUE,5.30038081,FALSE,0,0,184
"mp-4574","YbTaO4",0,12,3,149.547448326849,9.28242141978348,12.4622873605707,1,13,4.97824161896642,90.0000055106627,-8.28061231,-8.73861231,-3.20792218416667,0,TRUE,0.8534303,TRUE,1.9991124,4,167
"mp-4575","MgGeO3",3.1657,80,3,896.051082623496,4.29768080334586,11.2006385327937,7,61,5.33724565,90,-6.36016448675,-6.77236448675,-2.559689679,0.001121773250003,FALSE,1.78567575,FALSE,1.48e-05,0,60
"mp-4577","Y3(AlNi3)2",0,22,3,350.412740065888,6.37693030833748,15.9278518211768,3,229,7.69163079971807,109.488452949357,-6.15245099272727,-6.15245099272727,-0.555052349090909,0,TRUE,6.06408773,FALSE,6e-07,0,147
"mp-4578","Sr2GeS4",2.0504,14,3,355.934859869368,3.50960377828773,25.4239185620977,1,11,6.74104974599315,90,-4.90562888785714,-5.19305745928571,-1.68622685511905,0,TRUE,2.25687226,FALSE,0,0,118
"mp-4579","LaSiRu",0,6,3,129.676661789085,6.86516304128298,21.6127769648475,4,129,4.246877,90,-7.34808531,-7.32441864333333,-0.779176085,0,TRUE,8.08482979,FALSE,0.3785046,0,115
"mp-4582","NdRhO3",0.648700000000001,20,3,243.69214839188,8.04459180852845,12.184607419594,7,62,5.36174282,90,-7.4782300875,-7.8904300875,-2.49592580025,0,TRUE,4.81589773,FALSE,0,0,121
"mp-4583","NbCo2Sn",0,4,3,58.9780456359887,9.27665549878322,14.7445114089972,3,225,4.36919865881605,60,-7.204137,-7.204137,-0.12225887875,0.118953358749997,FALSE,8.19232465,TRUE,1.929951,2,118
"mp-4584","Tl3BO3",1.303,14,3,280.785935104159,7.94779365493119,20.0561382217256,6,176,9.2834565520723,90,-5.44108138428571,-5.73550995571429,-1.64874033505952,0,TRUE,3.08625003,FALSE,0,0,183
"mp-4585","Pr6Fe13Au",0,40,3,756.885520503969,7.75941143806216,18.9221380125992,4,140,12.9789219591587,143.838584367574,-7.16344304175,-7.16344304175,-0.0599634287499995,0.0207107577500007,FALSE,4.31700567,TRUE,53.1615368,38,374
"mp-4586","LiAlTe2",2.4572,8,3,240.851025642861,3.98669068648076,30.1063782053576,4,122,6.37660546080509,115.359113084242,-3.6994522675,-3.9104522675,-0.925174646666666,0,TRUE,2.59359091,FALSE,0,0,68
"mp-4587","DyNiC2",0,4,3,48.0693014766175,8.47086898707226,12.0173253691544,7,38,3.7349005449575,90,-7.547054035,-7.547054035,-0.335990408750001,0,TRUE,6.46987556,FALSE,0,0,100
"mp-4589","PrPO4",5.6516,24,3,298.585428102791,5.24722612092334,12.4410595042829,1,14,7.01711242,53.6578287481107,-7.98591194833333,-8.44391194833333,-3.44708476388889,0,TRUE,2.55578829,FALSE,0,0,98
"mp-4590","Mg(GaO2)2",3.1081,14,3,145.748054808408,5.1895779763318,10.4105753434577,3,227,5.9070768645043,59.9999902818589,-6.058902405,-6.45147383357143,-2.53101284214286,0.0070938028571427,FALSE,2.24502556,FALSE,0,0,51
"mp-4591","SrNb2O6",2.9977,36,3,486.416466018575,5.04466107031661,13.511568500516,1,14,5.63239079,89.7170125660508,-8.51114204333333,-8.96914204333333,-3.23889362101852,0,TRUE,1.08666926,FALSE,0,0,119
"mp-4593","Mn3AlC",0,5,3,62.1343100361415,5.44672412372523,12.4268620072283,3,221,3.96073285,90,-8.283628118,-8.283628118,-0.191570678258621,0,TRUE,7.07086969,TRUE,9.3354906,4,69
"mp-4595","VFe2Si",0,4,3,43.6357857867948,7.25764469355771,10.9089464466987,3,225,3.95171837670776,59.9999875092913,-8.34261444,-8.32486444,-0.46254781,0,TRUE,8.71195696,TRUE,0.8869566,3,63
"mp-4596","Sr2RuO4",0,7,3,96.4904919473201,5.85647407383315,13.7843559924743,4,139,3.90106627447103,106.385175131319,-6.71625700714286,-7.10882843571429,-2.47452210833333,0,TRUE,4.26470735,TRUE,2.0092989,1,106
"mp-4597","Y2B5Pd14",0,42,3,593.410411293363,9.63592011103498,14.1288193165087,4,141,10.4190505606976,133.035901027246,-6.11408509761905,-6.11408509761905,-0.454644791865078,0.0317253054112551,FALSE,5.23522486,FALSE,0.0021088,0,59
"mp-4598","Sr4PtO6",2.1959,22,3,328.664567317626,6.48281691256342,14.9392985144376,2,167,6.90109134986192,90.0454731519055,-6.11528637590909,-6.49001364863636,-2.6255373394697,0,TRUE,3.03694562,FALSE,0,0,232
"mp-4599","Ce(TeO3)2",1.0911,36,3,550.028049136694,5.93310421448889,15.2785569204637,1,14,11.16971293,55.2473808129261,-6.49309493333333,-6.95109493333333,-2.29555791009259,0.0112464191666656,FALSE,3.89232318,FALSE,0,0,126
"mp-4602","Tb2Ti2O7",2.7256,22,3,259.380071482865,6.72948347884789,11.7900032492211,3,227,7.15842041778498,60,-8.75681636045455,-9.19399817863636,-3.76794934117424,0.0190565122727282,FALSE,2.94038769,FALSE,0,0,135
"mp-4603","Nd3Co13B2",0,18,3,240.127946102412,8.43989206899289,13.340441450134,6,191,5.07253733345325,90,-6.82136534111111,-6.82136534111111,-0.150734386990741,0.0268907622416003,FALSE,4.77108475,TRUE,14.0398437,16,125
"mp-4604","Li7VN4",3.011,96,3,857.219785684816,2.41063640368803,8.92937276755016,3,205,9.49942669,90,-5.43403564520833,-5.55436897854167,-0.905006825486112,0,TRUE,1.35690698,FALSE,0,0,62
"mp-4606","U(Al2Fe)4",0,13,3,189.759549813398,5.92654605903331,14.5968884471845,4,139,6.64953605967687,98.1167429516511,-6.09639601384615,-6.09639601384615,-0.316695899230769,0,TRUE,8.36752568,TRUE,4.2920316,5,183