"material_id","formula_pretty","band_gap","nsites","nelements","volume","density","density_atomic","crystal_symmetry","symmetry_number","sides_abc","angles_abc","uncorrected_energy_per_atom","energy_per_atom","formation_energy_per_atom","energy_above_hull","is_stable","efermi","is_magnetic","total_magnetization","num_magnetic_sites","atomic_number"
"mp-5334","YbSbAu",0,6,3,142.018892674904,11.4998446205551,23.6698154458173,6,186,4.64837724,90,-3.85312423833333,-3.91712423833333,-0.936293731666666,0,TRUE,5.72372221,FALSE,0,0,200
"mp-5335","U2PdS4",0,14,3,297.965670963971,7.92177107115688,21.2832622117122,7,43,8.51616138757442,70.7337349995032,-7.58475039642857,-7.87217896785714,-1.54239306821429,0,TRUE,8.04459027,TRUE,8.0000002,4,186
"mp-5336","Sn(Mo3S4)2",0,15,3,284.947535336447,5.54121929987433,18.9965023557631,2,148,6.58066409210537,89.5266189071192,-7.45191726466667,-7.72018393133333,-0.908512501333334,0.0527318976666668,FALSE,6.08076825,FALSE,0.0018094,0,182
"mp-5338","ZnSeO3",3.8162,40,3,538.653978109893,4.74416993043778,13.4663494527473,7,61,6.21569912,90,-5.01013731375,-5.42233731375,-1.50319306946875,0,TRUE,0.65577119,FALSE,0,0,80
"mp-5339","CsNaTe",1.9696,6,3,243.460723702942,3.86719371242968,40.5767872838236,4,129,5.31929495,90,-2.797685015,-2.93835168166667,-1.15127382871648,0,TRUE,1.39847709,FALSE,0,0,118
"mp-5342","GaAgS2",0.9622,8,3,171.910562323681,4.66972465682104,21.4888202904602,4,122,5.75129002532456,64.2009113181509,-4.04220788,-4.29370788,-0.760319940104167,0,TRUE,2.313834,FALSE,0,0,94
"mp-5346","Lu(CuSi)2",0,5,3,75.0462134124703,7.92651464716369,15.0092426824941,4,139,3.88330302249452,109.9750164044,-5.262586412,-5.234186412,-0.520186428,0,TRUE,7.44193169,FALSE,0,0,114
"mp-5347","KAlF4",6.7929,6,3,80.3457703687058,2.9362904269107,13.3909617281176,4,123,3.60721704,90,-5.411602535,-5.719602535,-3.63595409383333,0.0173775200000001,FALSE,-1.53458073,FALSE,0,0,59
"mp-5348","MgCO3",4.9603,10,3,92.6077747230077,3.02364515778872,9.26077747230077,2,167,5.64985543976896,48.4432101506646,-7.17089781,-7.58309781,-2.44929547475,0,TRUE,2.2261969,FALSE,0,0,34
"mp-5350","Zn(GaS2)2",2.2765,7,3,146.782406291935,3.76850662926386,20.9689151845622,4,82,5.3093075121613,114.439443478209,-4.14082342285714,-4.42825199428571,-1.01943269107143,0,TRUE,1.9400673,FALSE,0,0,77
"mp-5351","Tb(GePd)2",0,5,3,91.205422696633,9.41362889939838,18.2410845393266,4,139,4.25154156024853,111.218629071563,-5.655944962,-5.655944962,-0.807907875999999,0,TRUE,5.38926499,FALSE,0,0,143
"mp-5353","ErCo3B2",0,6,3,63.0216020670295,9.63521835963164,10.5036003445049,6,191,4.9517463300016,90,-7.061138765,-7.061138765,-0.519229475555555,0,TRUE,5.4337641,FALSE,3.8e-05,0,127
"mp-5354","Er3(Si3Ru)4",0,38,3,609.778484833862,6.7702876892704,16.0468022324701,7,64,10.1035560648827,90,-6.74178231973684,-6.69694021447368,-0.596699006578947,0.0011663830701751,FALSE,8.22829934,FALSE,0.0073867,0,296
"mp-5360","Ba3Nb16O23",0,42,3,558.171795641094,6.74265667323103,13.2898046581213,7,65,12.2950860286111,90,-9.01315369071429,-9.38936797642857,-2.69528117122024,0,TRUE,5.31431398,FALSE,3.5e-06,0,120
"mp-5363","Hg2TeO5",0.5348,32,3,437.653512251368,9.23925400390192,13.6766722578553,7,33,5.92179313,90,-4.1888720275,-4.6182470275,-1.05773325505208,0.0197368527083323,FALSE,2.45380944,FALSE,0,0,164
"mp-5364","YbBO3",0,10,3,119.742866190107,6.43035641970901,11.9742866190107,2,167,6.29853433482601,46.4273299715081,-7.149826181,-7.562026181,-2.95021294408333,0,TRUE,-0.35754015,TRUE,1.9999659,6,91
"mp-5365","DyCuSi",0,6,3,110.185384962663,7.65973243995389,18.3642308271105,6,194,4.10678575,90,-5.38033644333333,-5.35666977666667,-0.646232596666666,0,TRUE,5.76147882,FALSE,3e-07,0,109
"mp-5367","K5SnSb3",0.4081,36,3,1437.40824188195,3.13983332753043,39.9280067189431,1,14,8.884284,58.6917000643384,-2.85785042111111,-2.92185042111111,-0.483120386666667,0.0019127222916659,FALSE,1.96783466,FALSE,0.0055817,0,228
"mp-5368","Li2GeF6",5.9721,27,3,272.775032344893,3.66190449204039,10.1027789757368,2,150,8.33342178072545,90.0007143826346,-4.92182454444444,-5.22982454444444,-3.01763038962963,0.0004517016666669,FALSE,-2.75009304,FALSE,0,0,80
"mp-5369","PrB2Rh3",0,6,3,81.3387620104945,9.6205378926087,13.5564603350824,6,191,5.46914949,90,-7.34169902166667,-7.34169902166667,-0.636263537222222,0,TRUE,6.53354547,FALSE,3.6e-06,0,154
"mp-5370","ErNbO4",3.4799,12,3,145.436781832671,7.40232677665803,12.1197318193892,1,15,5.09006868991473,112.19962980139,-8.863007425,-9.321007425,-3.5783776425,0,TRUE,2.10750302,FALSE,0,0,133
"mp-5372","RbFeS2",0,8,3,210.719123355145,3.23791965266224,26.3398904193931,1,15,5.38612830016804,114.607902828672,-5.188196855,-5.439696855,-1.0088331009375,0,TRUE,2.32850311,TRUE,5.9999998,2,79
"mp-5373","Y2Ti2O7",2.7208,22,3,257.715988219179,4.96831203193407,11.7143631008718,3,227,7.14307900077609,60,-9.075551465,-9.51273328318182,-3.75357444329545,0.0091973797727487,FALSE,3.09854819,FALSE,0,0,109
"mp-5376","Y4Ga12Pd",0,17,3,316.047642688101,6.82357343946266,18.5910378051824,3,229,7.43232661343495,109.47121588344,-4.57960899470588,-4.57960899470588,-0.615907904509803,0,TRUE,4.36042468,FALSE,1e-07,0,163
"mp-5377","YTaO4",4.0315,12,3,147.452374562426,7.51935229997489,12.2876978802022,1,13,5.11654819199654,90,-9.61130684416667,-10.0693068441667,-3.71747291277778,0,TRUE,2.26788601,FALSE,0,0,136
"mp-5380","Ca4P2O",1.2655,7,3,152.272103783332,2.59823199022083,21.7531576833332,4,139,4.49845931334825,105.98119183831,-5.07260166142857,-5.17074451857143,-1.77135976934524,0,TRUE,3.42775215,FALSE,0,0,83
"mp-5381","U2PN2",0,5,3,82.4358290503007,10.77763279917,16.4871658100601,2,164,3.81518830707271,90,-10.298347494,-10.442747494,-1.50892501866667,0,TRUE,9.79284057,TRUE,2.999986,2,114
"mp-5382","Sc6Si7Ni16",0,29,3,365.637979571822,6.3827305898227,12.6082061921318,3,225,8.02617726323949,60.0039706862009,-6.57077360413793,-6.55363567310345,-0.744869199999999,0,TRUE,8.10710714,FALSE,2.06e-05,0,189
"mp-5383","NdNiC2",0,4,3,52.8278956607746,7.13393233095131,13.2069739151937,7,38,3.84732828,106.913076808907,-7.507963125,-7.507963125,-0.256559350625,0,TRUE,6.15211154,FALSE,1e-06,0,94
"mp-5385","TbSnPd2",0,4,3,77.4507055563016,10.5157657897287,19.3626763890754,3,225,4.78461287267987,59.9999931153029,-5.6196101825,-5.6196101825,-0.86868478875,0,TRUE,6.36628703,FALSE,7e-07,0,161
"mp-5386","Er(SiRh)2",0,5,3,80.114602477846,8.89689803657894,16.0229204955692,4,139,4.02274976999808,110.625074374456,-7.143909648,-7.143909648,-1.114515526,0,TRUE,7.11915874,FALSE,0,0,127
"mp-5387","YNbO4",3.4975,12,3,149.111300009611,5.47479400478698,12.4259416674675,1,15,5.11268442527045,112.132493126212,-9.15254893833333,-9.61054893833333,-3.55146043861111,0,TRUE,2.10418976,FALSE,0,0,104
"mp-5388","Zn(SbO2)2",2.7258,28,3,433.457289031537,5.7146039893149,15.480617465412,4,135,8.53360343,90,-5.54432969214286,-5.93690112071428,-1.75054384428571,0.0131097142857141,FALSE,3.42618071,FALSE,0,0,89
"mp-5391","Mg2SiO4",4.4709,28,3,278.40016099133,3.35669904958619,9.94286289254751,7,74,7.69256141957209,135.998332763771,-6.83867184,-7.23124326857143,-3.17229570071429,0.0501827314285705,FALSE,4.04441158,FALSE,0,0,50
"mp-5392","Mg2SiO4",3.5344,28,3,303.710603412561,3.0769605845299,10.8468072647343,7,74,7.88682469915092,136.442749034494,-6.54600762785714,-6.93857905642857,-2.87963148857143,0.342846943571428,FALSE,3.48718859,FALSE,0.0008067,0,50
"mp-5394","LaSF",1.4881,6,3,114.131957630487,5.52782484302745,19.0219929384145,4,129,4.04866893,90,-6.76034567666667,-7.08201234333333,-3.42070036354167,0,TRUE,6.29530716,FALSE,0,0,82
"mp-5396","MnCo2Sb",0,4,3,53.3138683365937,9.17464380675454,13.3284670841484,3,225,4.22459445537404,60.0000105562404,-6.97367915,-7.02167915,-0.144766119482758,0,TRUE,8.58671314,TRUE,6.0001644,3,103
"mp-5399","Tb(FeSi)2",0,5,3,73.7593344952685,7.35691969457005,14.7518668990537,4,139,3.95275317030342,111.115286559709,-7.160452276,-7.132052276,-0.647043359999998,0,TRUE,6.36548167,FALSE,0.00031,0,105
"mp-5400","Th(CrSi)2",0,5,3,84.7982965157985,7.68017213740147,16.9596593031597,4,139,5.99857434765578,141.003207265546,-7.927302124,-7.898902124,-0.384784274,0.0775354246666664,FALSE,7.97801822,TRUE,2.0250474,2,128
"mp-5401","Sr2B2O5",4.283,36,3,492.4678340254,3.7341337133186,13.6796620562611,1,14,5.34751366,87.0023925808021,-7.43522264361111,-7.81688931027778,-3.20897664310185,0,TRUE,0.91223051,FALSE,0,0,75
"mp-5402","CaTl2O4",0.0439000000000007,14,3,194.796635638522,8.74342111001718,13.9140454027516,7,63,5.79332157298502,90,-5.12642175214286,-5.51899318071429,-1.73075874952381,0.0093953902380912,FALSE,4.19507317,FALSE,0,0,125
"mp-5403","Rb2TiO3",3.864,24,3,479.499072346345,3.69579986240414,19.979128014431,7,64,6.68991194615729,90,-6.52442384666667,-6.86792384666667,-2.75181946409722,0,TRUE,-0.20707679,FALSE,0,0,75
"mp-5407","TiAlCo2",0,4,3,48.7467882178653,6.56475389162251,12.1866970544663,3,225,4.10034457112638,60.0000022965125,-7.089367615,-7.089367615,-0.624941755833333,0,TRUE,7.10381391,TRUE,1.0003066,3,62
"mp-5408","Ag3AsO4",0,16,3,231.900456930626,6.62386654427374,14.4937785581642,3,218,6.14375471,90,-4.7443533975,-5.0878533975,-0.96991074,1.36624999935719e-06,FALSE,1.60960104,FALSE,0,0,151
"mp-5409","Y4Al2O9",4.2101,60,3,838.819145046686,4.38350989316034,13.9803190841114,1,14,10.560758,71.5203830257297,-8.58539419883333,-8.99759419883333,-3.80577856452778,0.0116901914500004,FALSE,1.95166822,FALSE,0.0007539,0,194
"mp-5410","SmCo3B2",0,6,3,65.7612589355573,8.80709184978836,10.9602098225929,6,191,5.08932746000511,90,-6.99210027166667,-6.99210027166667,-0.425046428055555,0.009357868571425,FALSE,5.42716204,TRUE,0.889556,4,121
"mp-5414","NaSbS2",0.8857,8,3,193.507132580914,3.58491196149371,24.1883915726143,1,15,5.8505339289683,113.478883577758,-4.10944019375,-4.36094019375,-0.929833626950432,0,TRUE,3.78629976,FALSE,0,0,78
"mp-5416","Na2SeO3",4.2235,24,3,326.131474880746,3.5221362313876,13.5888114533644,1,14,9.9292172,91.0329565967059,-4.95558051375,-5.29908051375,-1.80224248069953,0,TRUE,1.01142546,FALSE,0,0,61
"mp-5418","Li6Zr2O7",3.837,30,3,311.338179968945,3.58510634861069,10.3779393322982,1,15,5.99883607596331,81.2354175614176,-6.75712749533333,-7.07772749533333,-2.86601019941667,0,TRUE,0.65925756,FALSE,0,0,103
"mp-5419","LiGa2Ir",0,4,3,54.7067544933979,10.277801622739,13.6766886233495,3,225,4.26106957386714,60.0000012968743,-4.70226614,-4.70226614,-0.501378867083333,0,TRUE,5.26177971,FALSE,0,0,111
"mp-5423","Pr(MnSi)2",0,5,3,91.7662577824794,5.55444179336866,18.3532515564959,4,139,4.14475696434811,109.884663106273,-7.346054558,-7.317654558,-0.526540078172414,0,TRUE,6.26281408,TRUE,7.335054,2,98
"mp-5425","RbCuC2",1.9542,8,3,206.507324429257,2.78277499639365,25.8134155536572,4,131,4.931132,90,-5.60815529625,-5.60815529625,0.276112635625,0.299020895781251,FALSE,-0.48686378,FALSE,0,0,72
"mp-5426","ErB3Mo",0,10,3,113.027325470997,8.68654519234924,11.3027325470997,1,11,3.14853331,101.795798047115,-7.730199435,-7.730199435,-0.6398905885,0,TRUE,6.90713288,FALSE,1e-07,0,120
"mp-5427","Mg2P2O7",5.3203,11,3,116.557898894973,3.17060012583691,10.5961726268157,1,12,4.49802460430201,104.226655640668,-6.96634309818182,-7.40352491636364,-2.98043527162879,0.0061516381818185,FALSE,2.71111945,FALSE,0,0,75
"mp-5429","Tb(SiOs)2",0,5,3,83.7300457926891,11.8111076636131,16.7460091585378,4,139,4.17426589318421,111.721546160844,-8.314173142,-8.314173142,-0.726225738000001,0,TRUE,7.11750372,FALSE,0,0,155
"mp-5431","BaTeO3",2.7149,10,3,189.263787858861,5.49100834768368,18.9263787858861,1,11,4.65043918222544,90,-5.926090204,-6.338290204,-2.35782081058333,0,TRUE,2.38545908,FALSE,0,0,124
"mp-5433","Pr3RuO7",0,22,3,310.677944917114,6.79644033155587,14.1217247689597,7,63,6.66046434635025,90,-7.90728969954545,-8.34447151772727,-3.04956781011364,0,TRUE,3.39608816,TRUE,6.001056,2,210
"mp-5434","Y2Fe14B",0,68,3,909.682644106439,7.0858760737174,13.3776859427418,4,136,8.736038,90,-8.23751861691177,-8.23751861691177,-0.10854032647059,0,TRUE,4.74068591,TRUE,124.4719334,64,44
"mp-5436","FeCo2Si",0,4,3,43.879518745137,7.63662931924292,10.9698796862843,3,225,3.95906200657701,59.9999971270307,-7.3906014525,-7.3728514525,-0.344857745,0.0068793903124992,FALSE,8.05545225,TRUE,5.9783222,3,67
"mp-5438","TmBRh3",0,5,3,71.5249970555243,11.3402276880009,14.3049994111049,3,221,4.15099888,90,-7.473258072,-7.473258072,-0.823627911166666,0,TRUE,5.72030745,FALSE,0.0025981,0,164
"mp-5439","Th2Ru6C5",0,26,3,351.699957350864,10.6757010997697,13.5269214365717,4,127,9.149059,90,-9.18028289230769,-9.18028289230769,-0.2097091075,0.0131877459615346,FALSE,8.0283236,FALSE,0.0077243,0,334
"mp-5440","AlPO4",5.612,144,3,2532.93352397905,1.91879545655059,17.5898161387434,7,61,9.80533,90,-7.47595876763889,-7.93395876763889,-3.10968657069444,0.0119622240277923,FALSE,-1.37477627,FALSE,0,0,52
"mp-5443","Nb2SnC",0,8,3,128.533799333804,8.17864528926023,16.0667249167255,6,194,3.28320688,90,-8.77276876125,-8.77276876125,-0.412556904374998,0,TRUE,7.8072834,FALSE,0,0,97
"mp-5444","Y3Ga5O12",3.3529,80,3,960.504763534276,5.58287822831262,12.0063095441784,3,230,10.765655325188,109.471220634491,-7.24246606925,-7.65466606925,-2.959658169875,0,TRUE,2.04394302,FALSE,0.0020032,0,202
"mp-5446","Li2PrO3",0,6,3,84.1879192892945,3.99982740991249,14.0313198815491,7,65,5.46175487343482,90,-6.02156158,-6.36506158,-2.45859197631944,0.163790665729167,FALSE,0.55497847,TRUE,1.0000006,3,78
"mp-5447","Sm3OsO7",0,22,3,298.15518162029,8.39089029543964,13.5525082554677,7,63,6.53058685203163,90,-8.15385676272727,-8.59103858090909,-3.13558887056818,0,TRUE,3.60853265,TRUE,5.9999954,2,248
"mp-5448","Pr3SbO7",2.7314,22,3,322.438396624562,6.76165507693569,14.6562907556619,7,63,6.692972892741,90,-7.66042941090909,-8.09761122909091,-3.27047127602273,0,TRUE,3.15603273,FALSE,0,0,217
"mp-5449","Na2Ti6O13",2.9167,21,3,256.766148261616,3.49983882525372,12.2269594410293,1,12,7.77943170307955,81.3528940499907,-8.33635313571429,-8.76163885,-3.31759332937397,0,TRUE,1.37782404,FALSE,0,0,121
"mp-5450","K2ZrF6",5.3289,18,3,258.631040784228,3.63927754270726,14.3683911546793,1,15,6.54258673844273,89.7337457960552,-5.82469133111111,-6.13269133111111,-3.66187218344444,0,TRUE,-2.08356759,FALSE,0,0,104
"mp-5451","Er(FeGe)2",0,5,3,81.7979324873888,8.6120615309349,16.3595864974778,4,139,3.8852665175544,108.647997003164,-6.599182072,-6.599182072,-0.448418684000001,0,TRUE,6.0002922,TRUE,5.3027639,2,126
"mp-5452","Ce(CuSi)2",0,5,3,81.4331793360616,6.59416060131948,16.2866358672123,4,139,4.07149890804185,110.948804881609,-5.572079192,-5.543679192,-0.547251481000001,0,TRUE,8.53882257,TRUE,0.6286721,1,101
"mp-5454","Er3(CuSi)4",0,11,3,178.634644946833,8.0715084891574,16.2395131769848,7,71,7.76229784502829,149.52023672102,-5.34763168818182,-5.32181350636364,-0.612608485454546,0,TRUE,6.31338661,FALSE,0,0,207
"mp-5455","K6Ti2O7",3.4474,30,3,574.885151267906,2.55525464208972,19.1628383755969,1,14,9.272604,56.5803275476935,-6.037663366,-6.358263366,-2.55291678639444,0,TRUE,-0.25549684,FALSE,0,0,165
"mp-5456","Sr2CuO3",0,6,3,87.1338911639186,5.46534031043968,14.5223151939864,7,71,3.51666644864029,106.694806397672,-5.81410271166667,-6.15760271166667,-2.43789275993056,0,TRUE,3.49286062,TRUE,0.2380158,1,83
"mp-5457","Pr3Co11B4",0,18,3,224.014320403354,8.25940912918245,12.4452400224085,6,191,5.15499420753748,90,-6.87859331333333,-6.87859331333333,-0.253494419259259,0.0280432870362918,FALSE,5.31189954,TRUE,6.7405837,14,133
"mp-5459","Nd2TeO2",1.31,5,3,106.511935180528,6.98568656376775,21.3023870361055,4,139,4.06011268085736,106.685542853206,-7.39881382,-7.75801382,-3.24341818383333,0,TRUE,4.48993688,FALSE,0,0,120
"mp-5461","Rb3TaO8",2.9856,12,3,200.954702587761,4.67159963969896,16.7462252156467,4,121,6.41189438198253,102.898619862994,-5.97223126666667,-6.28223126666667,-1.75115713854167,0.0009140089062498,FALSE,0.47853087,FALSE,0,0,203
"mp-5466","YbNbO4",0,12,3,145.69837030843,7.52080984048987,12.1415308590358,1,15,5.2294023436872,114.011093312019,-7.81461455166667,-8.27261455166667,-3.0346698575,0.0108291124999944,FALSE,0.70632055,TRUE,1.9976181,8,135
"mp-5468","Na3AlF6",5.8904,10,3,130.021052485804,2.68122482183975,13.0021052485804,7,71,5.6906514263845,121.694080046956,-4.976138794,-5.253338794,-3.33513624246552,0.0597322665000001,FALSE,-1.51507084,FALSE,1.71e-05,0,80
"mp-5470","AgPS3",1.3228,10,3,222.463817539056,3.50877784813217,22.2463817539056,1,12,6.78025384576768,96.228203408209,-4.291807009,-4.593607009,-0.462565386875001,0.0096905379999912,FALSE,2.02048759,FALSE,0,0,94
"mp-5472","Nb2Cd2O7",1.8839,22,3,286.465591301388,6.05900665651659,13.0211632409722,3,227,7.39938833738841,60,-7.17700315545455,-7.61418497363636,-2.46189310284091,0.0097306170454647,FALSE,1.00149948,FALSE,0,0,137
"mp-5473","CaMgSi",0,12,3,273.145448898989,2.24858305051511,22.7621207415824,7,62,4.4302221,90,-3.44673280416667,-3.4230661375,-0.4126668175,0,TRUE,4.41301058,FALSE,0,0,46
"mp-5475","NaTaN2",1.2765,4,3,47.6194727738667,8.08836714126069,11.9048681934667,2,166,5.9138035912887,30.6365734075436,-8.36505104,-8.54555104,-1.08222784663793,0,TRUE,4.10311757,FALSE,0,0,91
"mp-5476","Cs4Mg3F10",6.2806,34,3,604.86165725659,4.36242859025847,17.7900487428409,7,64,7.88121550712683,90,-4.76833271911765,-5.040097425,-3.42261275951318,0,TRUE,-1.24941458,FALSE,0,0,189
"mp-5477","Na5NbO5",2.6375,22,3,306.220757399019,3.12186457511857,13.9191253363191,1,15,5.98467663035557,81.3828974325175,-5.69393872136364,-6.00621144863636,-2.23826826104624,0,TRUE,0.62323331,FALSE,0,0,117
"mp-5478","TlPd3O4",1.0565,16,3,223.062908545859,8.7491073970406,13.9414317841162,3,225,6.80739217897691,59.9999956408117,-5.312587845625,-5.656087845625,-0.944957417916666,0,TRUE,3.54000838,FALSE,0,0,197
"mp-5479","RbAlF4",6.8772,6,3,83.4218173612249,3.75101972749099,13.9036362268708,4,123,3.64662476,90,-5.39184153166667,-5.69984153166667,-3.63783723625,0.0010009618333288,FALSE,-1.44887028,FALSE,0,0,77
"mp-5481","Na6CoS4",0,22,3,476.050011245311,2.26822418096877,21.6386368747869,6,186,8.9139014987056,90,-3.77890338136364,-3.96181247227273,-1.09006074289185,0.0481887495833341,FALSE,2.34963923,TRUE,5.999596,2,130
"mp-5486","Ca(CuSi)2",0,5,3,80.2388956972647,4.62202841216511,16.0477791394529,4,139,4.03451167084754,110.743488211219,-4.611430392,-4.583030392,-0.372100536,0,TRUE,6.480243,FALSE,0,0,63
"mp-5487","Sr3SiO5",3.7632,36,3,522.881965238534,4.71207311524904,14.5244990344037,4,130,6.9577169,90,-6.87358753388889,-7.25525420055556,-3.34111620652778,0.005615511388882,FALSE,2.43310209,FALSE,0,0,122
"mp-5488","LiInO2",1.797,8,3,87.122209799139,5.86121114887039,10.8902762248924,4,141,5.56194217371998,134.161117633506,-5.35885671375,-5.70235671375,-2.06386070895833,0,TRUE,3.91058091,FALSE,0,0,60
"mp-5489","LuTaO4",4.3218,12,3,141.163095233896,9.8790845643835,11.7635912694913,1,13,5.02917513354541,90,-9.325966305,-9.783966305,-3.75638580583333,0,TRUE,1.79037935,FALSE,1e-07,0,168
"mp-5491","MnAlAu2",0,4,3,64.4422178191623,12.2617138407948,16.1105544547906,3,225,4.50016579283934,59.9999971172677,-5.111757035,-5.111757035,-0.247918254482759,0,TRUE,6.50065343,TRUE,4.151378,1,117
"mp-5492","SrAl2O4",4.5742,42,3,573.843751972596,3.56934874333165,13.662946475538,6,173,8.89270800047621,90,-7.19965308023809,-7.59222450880952,-3.45402451476191,0.0059567486904761,FALSE,1.76690931,FALSE,2e-07,0,75
"mp-5493","PrSi2Ni",0,8,3,139.637685713837,6.08316414008405,17.4547107142296,7,63,4.06288046,104.270238056245,-6.16260771125,-6.12710771125,-0.774188087500001,0,TRUE,7.07009938,FALSE,1e-07,0,101
"mp-5495","Ag2PdO2",0,5,3,71.7422847340249,8.19723747884246,14.348456946805,7,71,5.80390462219341,149.458456711318,-4.348851614,-4.623651614,-0.475977366166666,0.0535968096666703,FALSE,2.70883702,FALSE,2e-06,0,101
"mp-5496","Al5C3N",1.4427,18,3,203.293409655623,3.02135595420832,11.2940783142013,6,194,3.34566175363634,90,-6.41329388,-6.45340499111111,-0.370030485277777,0.0530488650000018,FALSE,7.44440847,FALSE,0.0075627,0,71