"material_id","formula_pretty","band_gap","nsites","nelements","volume","density","density_atomic","crystal_symmetry","symmetry_number","sides_abc","angles_abc","uncorrected_energy_per_atom","energy_per_atom","formation_energy_per_atom","energy_above_hull","is_stable","efermi","is_magnetic","total_magnetization","num_magnetic_sites","atomic_number"
"mp-288","PtS",0.3848,4,2,74.6876719453891,10.1004564371727,18.6719179863473,4,131,3.49446173,90,-5.510926545,-5.762426545,-0.6586349515625,0,TRUE,5.17995787,FALSE,0,0,94
"mp-291","TiOs",0,2,2,29.3501721829311,13.4707683374407,14.6750860914655,3,221,3.08463336,90,-10.268490365,-10.268490365,-0.707060641666667,0,TRUE,7.90417175,FALSE,3.55e-05,0,98
"mp-292","V3As",0,8,2,104.544068818511,7.23486852175834,13.0680086023138,3,223,4.71085568,90,-8.4291469325,-8.4291469325,-0.45143777875,0,TRUE,7.30575121,FALSE,0,0,79
"mp-294","UO3",1.8855,32,2,492.037037500248,7.72233232969104,15.3761574218827,4,141,11.2438045185577,143.841342462142,-9.5485585040625,-10.0638085040625,-3.530939468125,0.0821940659375002,FALSE,2.79164841,FALSE,0.0006335,0,108
"mp-295","HoAs",0,2,2,48.2430696792958,8.25576577126366,24.1215348396479,3,225,4.08617190342927,60.0000055592538,-6.139242785,-6.139242785,-1.5184791475,0,TRUE,4.14472025,FALSE,8e-07,0,100
"mp-299","Mo9Se11",0,40,2,905.692821636786,6.3511309914874,22.6423205409196,7,63,9.02403729023905,90,-7.27762416025,-7.53722416025,-0.733930298039063,0.0809387637500043,FALSE,3.90739611,FALSE,0.0021212,0,336
"mp-300","YbPt3",0,4,2,65.2097756382968,19.3095816933121,16.3024439095742,3,221,4.0250465,90,-5.714103825,-5.714103825,-0.775851765,0.0333223375000004,FALSE,5.78030723,FALSE,4e-07,0,226
"mp-303","BaZn5",0,12,2,237.429943681491,6.49545575826448,19.7858286401242,7,63,5.30989066002451,104.983741459183,-1.59072257666667,-1.59072257666667,-0.221107078333333,0,TRUE,2.5762968,FALSE,0,0,176
"mp-304","Ca2Ge",0.2999,12,2,334.470817230827,3.0343302213432,27.8725681025689,7,62,4.85146523,90,-3.49201505,-3.49201505,-0.613939178333333,0,TRUE,3.37318463,FALSE,0,0,52
"mp-305","TiFe",0,2,2,25.377989104012,6.78611008025035,12.688994552006,3,221,2.93868071,90,-8.603586765,-8.603586765,-0.420830151666665,0,TRUE,6.68669165,FALSE,1.7e-06,0,48
"mp-306","B2O3",6.3017,15,2,135.376404581537,2.56190276913897,9.02509363876911,2,152,4.33741660000011,90,-8.02638962133333,-8.43858962133333,-2.79881968625,0,TRUE,-0.41221484,FALSE,0,0,21
"mp-308","U3O8",0,11,2,165.176457855512,8.46555229599423,15.0160416232284,6,189,6.79353435005582,90,-9.88515159,-10.3847879536364,-3.70772070636364,0,TRUE,5.37566523,TRUE,2.0000001,3,240
"mp-309","ThAg2",0,3,2,68.752219120255,10.814879772174,22.9174063734183,6,191,4.8838155,90,-4.53243759333333,-4.53243759333333,-0.172780841111111,0,TRUE,5.34326978,FALSE,3e-07,0,137
"mp-310","NpCo2",0,6,2,90.1317701971919,13.075733511704,15.021961699532,3,227,5.03284938384421,59.9769568188963,-9.13020218833333,-9.13020218833333,-0.0753970979166662,0,TRUE,10.78820854,TRUE,3.816306,6,27
"mp-312","ThIr5",0,6,2,106.182959489116,18.6586196309062,17.6971599148527,6,191,5.30491275,90,-9.04671501333333,-9.04671501333333,-0.445710155,0,TRUE,8.3762294,FALSE,1e-07,0,398
"mp-313","YC2",0,3,2,41.7440962436969,4.49213486894016,13.914698747899,4,139,3.67369542822961,117.049263607685,-8.49581073333333,-8.49581073333333,-0.187876700555556,0.068522803333332,FALSE,4.53737897,FALSE,0,0,45
"mp-314","Th3Ge2",0,10,2,266.099587400078,10.5010903620774,26.6099587400078,4,127,4.16334055,90,-6.99305762,-6.99305762,-0.695531528000001,0,TRUE,7.37875999,FALSE,1e-07,0,212
"mp-315","PbF2",4.3938,3,2,51.7608966424516,7.86614804695686,17.2536322141505,3,225,4.18316983600048,60.000007455191,-4.88627634333333,-5.19427634333333,-2.68240800833333,0,TRUE,1.56246806,FALSE,0,0,91
"mp-316","MnV",0,2,2,23.2899782706001,7.5490461512484,11.6449891353001,3,221,2.85576869,90,-9.407042735,-9.407042735,-0.284082053965518,0,TRUE,6.80921405,FALSE,7e-07,0,48
"mp-317","SnRh",0,8,2,137.446218560238,10.7096782834461,17.1807773200298,3,198,5.16072755,90,-6.14983966375,-6.14983966375,-0.46289980125,0,TRUE,9.19935581,FALSE,1e-07,0,95
"mp-318","SrIr2",0,6,2,114.624520325992,13.6770754863878,19.1040867209987,3,227,5.45252390491434,59.9999849166365,-6.732898005,-6.732898005,-0.277444067222222,0,TRUE,5.859562,FALSE,0.002899,0,115
"mp-319","Sm2Tl",0,6,2,178.774125289714,9.38327916256725,29.7956875482856,6,194,5.49790877,90,-4.20069966166667,-4.20069966166667,-0.267427856111111,0.0139628577777779,FALSE,4.48056465,TRUE,1.9559466,4,143
"mp-321","RhPb2",0,6,2,133.412314768327,12.877461778678,22.2353857947212,4,140,5.59701006370152,106.055128142438,-5.00023343333333,-5.00023343333333,-0.0703660966666668,0,TRUE,7.92659723,FALSE,0,0,127
"mp-322","TlS",0.5267,8,2,213.717160425991,7.348621675462,26.7146450532489,4,140,6.54701243569728,106.181128900559,-3.45365448875,-3.70515448875,-0.455607981979167,0.0514956529166661,FALSE,4.12397102,FALSE,0,0,97
"mp-323","LaF3",4.816,4,2,50.2608223948658,6.47225246522268,12.5652055987164,4,139,4.31934517520561,126.589839140888,-6.641254925,-6.987754925,-4.320143923125,0.172047243333337,FALSE,4.41412222,FALSE,0.0008586,0,75
"mp-328","Zr2Ni",0,6,2,109.706809530872,7.29990630457512,18.2844682551453,4,140,5.23987721613661,75.7058290691738,-7.94824428166667,-7.94824428166667,-0.323064968333333,0,TRUE,5.02107207,FALSE,4e-07,0,68
"mp-331","ScAl",0,2,2,38.2846438834179,3.12017913596544,19.142321941709,3,221,3.37034897,90,-5.48577099,-5.48577099,-0.446748522499999,0,TRUE,5.83645083,FALSE,8.3e-06,0,34
"mp-333","HfFe2",0,6,2,86.4435737114733,11.1484337275157,14.4072622852456,3,227,4.96305928152329,60.0000286633704,-9.31186941,-9.31186941,-0.346125593333333,0,TRUE,5.25069184,TRUE,7.3378263,6,98
"mp-334","LaF3",6.0452,24,2,325.913868319658,5.98871229370761,13.5797445133191,6,185,7.16461976196159,89.9998469966299,-6.81242953583333,-7.15892953583333,-4.49131853395833,0.0008726325000028,FALSE,2.27772829,FALSE,0,0,75
"mp-335","BaGa4",0,5,2,112.736601259809,6.13064348257571,22.5473202519618,4,139,4.58378159135262,111.445502187794,-3.257321308,-3.257321308,-0.451049502,0,TRUE,3.41671877,FALSE,0,0,149
"mp-336","SmCo2",0,6,2,95.223913347754,9.35480140711089,15.8706522246257,3,227,5.12574311118693,60.0010536842255,-6.40721543,-6.40721543,-0.0954748550000002,0,TRUE,4.75497553,TRUE,4.0004971,6,89
"mp-337","PuBe13",0,28,2,268.817688636426,4.46189072612357,9.60063173701522,3,226,7.24321607026363,60.0110237987453,-4.6067448725,-4.6067448725,-0.115301617142858,0,TRUE,5.43386531,TRUE,11.076026,2,0
"mp-339","UMn2",0,6,2,97.6434661686946,11.8330466263331,16.2739110281158,3,227,5.16786303377002,119.990985761134,-9.90170444166667,-9.90170444166667,-0.0298909102873565,0.0161738049999993,FALSE,10.06208076,TRUE,5.8379949,6,117
"mp-341","PbF4",1.9022,5,2,72.5019564660598,6.48608782972819,14.500391293212,4,139,4.2935030675748,115.59930369565,-4.101185062,-4.470785062,-2.199072474,0,TRUE,-1.93674298,FALSE,0,0,109
"mp-342","SmTe",0,2,2,61.9966534689392,7.44497344817786,30.9983267344696,3,225,4.44250322782789,59.9999908890634,-5.31275825,-5.52375825,-1.59281223583333,0,TRUE,6.06090894,FALSE,1.6e-06,0,114
"mp-343","PrN",0,2,2,35.4214215506573,7.26230961069862,17.7107107753287,3,225,3.68632566131127,59.9999901131867,-7.84207983,-8.02257983,-1.46387949,0,TRUE,3.84036242,FALSE,0,0,66
"mp-344","BN",3.5767,8,2,64.8295237523755,2.54271560288294,8.10369046904694,1,9,4.9938379845832,84.8191194327642,-8.5693891375,-8.7498891375,-1.24194578958333,0.21943424,FALSE,3.65924926,FALSE,4.01e-05,0,12
"mp-345","HfB",0,2,2,28.3063764330158,11.1049786464299,14.1531882165079,3,225,3.42084260023784,60,-8.731788045,-8.731788045,-0.413497644583332,0.349917075,FALSE,5.47241848,FALSE,0.0009076,0,77
"mp-348","TmPd",0,2,2,40.6888988834754,11.2373751908896,20.3444494417377,3,221,3.43947359,90,-5.777318275,-5.777318275,-0.949459658333333,0,TRUE,3.74367859,FALSE,2.1e-06,0,115
"mp-349","Yb3Si5",0,8,2,172.25762174477,6.35794444933821,21.5322027180963,6,189,6.88961834,90,-4.38240772125,-4.33803272125,-0.3698558475,0.0397428131250006,FALSE,4.37241301,FALSE,1e-07,0,196
"mp-350","Zr5Te4",0,9,2,229.167874339164,7.00335604751887,25.463097148796,4,87,3.88484973232785,86.5291319501449,-7.00297209888889,-7.19052765444444,-1.04478024074074,0,TRUE,6.29423714,FALSE,3e-07,0,316
"mp-351","SiNi",0,8,2,95.1126318589875,6.06017311434362,11.8890789823734,7,62,3.32129709,90,-6.10242388875,-6.06692388875,-0.46419653375,0,TRUE,10.03041751,FALSE,0,0,42
"mp-352","HfO2",4.0165,12,2,136.516579370394,10.2412432861632,11.3763816141995,1,14,5.0941750111755,90,-10.1795147208333,-10.6375147208333,-4.02065923666667,0,TRUE,3.14741998,FALSE,0,0,80
"mp-353","Ag2O",0,6,2,107.44222318885,7.16303772593079,17.9070371981417,3,224,4.75399071,90,-3.63124597833333,-3.86024597833333,-0.322979072361111,0,TRUE,0.82633673,FALSE,0,0,55
"mp-355","Nd5Si4",0,36,2,946.208039568193,5.85133755859536,26.283556654672,4,92,7.90158778000007,90,-5.74587820722222,-5.71432265166667,-0.654099398055555,0.0001443836111114,FALSE,4.61409371,TRUE,2.077846,4,282
"mp-356","Nd2Co17",0,19,2,245.048622164735,8.74387200242474,12.8972959034071,2,166,6.30107356789462,83.0448839633766,-6.91359601052632,-6.91359601052632,-0.0516119378947367,0,TRUE,5.00005904,TRUE,28.4276204,19,60
"mp-357","SmPd3",0,4,2,70.9899544443557,10.9849676980416,17.7474886110889,3,221,4.14062245,90,-5.894924455,-5.894924455,-0.83036656375,0,TRUE,4.96071799,FALSE,1e-07,0,154
"mp-358","HgTe",0.4802,6,2,195.637540640977,8.35686721191549,32.6062567734961,2,152,4.65543750159151,90,-1.82744022166667,-2.03844022166667,-0.3149470925,0.0645130233333342,FALSE,3.15264688,FALSE,0,0,132
"mp-359","Cu3P",0,24,2,299.709200889058,7.3670408648271,12.4878833703774,2,165,6.95793074672708,90,-4.401284015,-4.401284015,0.0264466141666665,0.0685139340625013,FALSE,8.26510357,FALSE,0.0028099,0,73
"mp-361","Cu2O",0.5127,6,2,76.5869082712687,6.20494716806907,12.7644847118781,3,224,4.24669932,90,-4.79763022,-5.02663022,-0.64492953625,0,TRUE,4.17791244,FALSE,0,0,37
"mp-362","Ni3S2",0,5,2,65.4892155107567,6.09074972397986,13.0978431021513,2,155,4.03096409908263,89.4621364633062,-5.493291946,-5.694491946,-0.571829991249999,0,TRUE,7.36047974,FALSE,4e-07,0,72
"mp-363","NbGe2",0,9,2,146.231415754984,8.1142165056667,16.2479350838871,6,180,4.98885442,90,-6.79247948555556,-6.79247948555556,-0.343359235555556,0,TRUE,7.57918835,FALSE,0,0,73
"mp-364","AlRh",0,2,2,26.3923234609204,8.17216802301044,13.1961617304602,3,221,2.97732247,90,-6.643913745,-6.643913745,-1.088971895,0,TRUE,9.12318297,FALSE,7e-07,0,58
"mp-365","MgB4",0.3736,20,2,177.512553079523,2.52754526852,8.87562765397613,7,62,4.37815396,90,-5.80240259,-5.80240259,-0.138833163333333,0,TRUE,6.79040123,FALSE,0,0,27
"mp-367","Sm4Sb3",0,14,2,412.663253706756,7.78007885143212,29.4759466933397,3,220,8.12342599177979,109.471224234193,-5.51318206142857,-5.59546777571429,-1.12956088142857,0.0042533489285716,FALSE,5.40129302,FALSE,1e-05,0,288
"mp-368","P2O3",3.8409,20,2,385.503287757381,1.89434617763906,19.275164387869,1,11,8.487091,71.6476318106408,-6.682403258,-7.094603258,-1.96126902858333,0.0881366992666663,FALSE,-0.14873963,FALSE,0.0002571,0,31
"mp-369","TbAl3",0,12,2,232.938108539213,5.12986198281748,19.4115090449344,2,166,7.85510701502769,46.508840776151,-4.40124442833333,-4.40124442833333,-0.433471030833333,0.0020571616666664,FALSE,6.02847232,FALSE,0,0,91
"mp-370","CdS",0.2793,2,2,41.7411202066207,5.74752285033426,20.8705601033103,3,225,3.89367500532235,60,-3.028602955,-3.280102955,-0.7504331415625,0.1334067125,FALSE,2.88539394,FALSE,0.0007917,0,64
"mp-371","La3Tl",0,4,2,131.905716497462,7.81892066617728,32.9764291243656,3,221,5.09044228,90,-4.5329620525,-4.5329620525,-0.240295937083333,0,TRUE,8.23358179,TRUE,1.6387625,3,195
"mp-372","VPt3",0,4,2,59.372800794367,17.7930659583641,14.8432001985918,3,221,3.90117495,90,-7.258842975,-7.258842975,-0.4345164675,0.0089350999999995,FALSE,7.68906989,TRUE,1.2842996,1,179
"mp-374","CrB2",0,3,2,22.9940720116107,5.31640202731983,7.66469067053692,6,191,2.95928835930144,90,-8.01048551333333,-8.01048551333333,-0.339875176111111,0.0671251616666577,FALSE,8.67801104,TRUE,1.0056622,1,29
"mp-375","UO3",1.635,4,2,70.7225129067815,6.71581326426754,17.6806282266954,3,221,4.13541623,90,-9.63075257,-10.14600257,-3.6131335340625,0,TRUE,1.4768918,FALSE,0,0,108
"mp-376","PrSn3",0,4,2,109.372170676829,7.54625633091614,27.3430426692071,3,221,4.78228672,90,-4.70991059,-4.70991059,-0.50750526,0,TRUE,7.75934531,FALSE,5.5e-06,0,159
"mp-377","LuRh",0,2,2,36.7644842379527,12.5506491209654,18.3822421189763,3,221,3.32513661,90,-6.97204545,-6.97204545,-1.029416255,0,TRUE,4.90640627,FALSE,7.1e-06,0,116
"mp-378","ErSi",0,4,2,83.21532272407,7.79609242809841,20.8038306810175,7,63,3.78731305,112.057961821938,-5.821016595,-5.785516595,-0.788998175000001,0,TRUE,5.41839678,FALSE,4.7e-06,0,82
"mp-379","AgSe",0,2,2,53.3870578598361,5.81106240499447,26.693528929918,3,216,4.22652713778961,60,-3.076473385,-3.312473385,-0.148239644505208,0.102169224166667,FALSE,1.39202411,FALSE,2.22e-05,0,81
"mp-380","ZnSe",1.2004,4,2,90.8865571630533,5.27537563285386,22.7216392907633,6,186,3.99683864,90,-3.08818648,-3.32418648,-0.946358936171875,0.0052020950000004,FALSE,1.32116904,FALSE,0,0,64
"mp-381","SiRu",0,2,2,24.7980763531368,8.64856412094752,12.3990381765684,3,221,2.91612407,90,-7.989226485,-7.953726485,-0.6038662,0.0097378712500004,FALSE,11.44140662,FALSE,2e-07,0,58
"mp-382","Th3As4",0.2713,14,2,352.888853266317,9.37159533562843,25.2063466618798,3,220,7.7105723496691,109.471220090756,-7.17931757357143,-7.17931757357143,-1.33959637785714,0,TRUE,6.5743814,FALSE,0,0,279
"mp-383","Rb2Te",1.3725,12,2,513.63093758665,3.86059320258325,42.8025781322209,6,194,6.10970365,90,-2.64162033833333,-2.782287005,-1.08082899222222,0.0569446516666665,FALSE,1.21858013,FALSE,0,0,89
"mp-384","MgP4",0.7289,10,2,196.770754070304,2.5013063606807,19.6770754070304,1,14,5.10306593,98.7330687335414,-4.956805909,-4.956805909,-0.306107893666667,0,TRUE,5.21312334,FALSE,0,0,57
"mp-387","CeSb",0,2,2,68.2224820783097,6.37407662925236,34.1112410391548,3,225,4.58649443091663,59.9999990685988,-6.089424785,-6.185424785,-1.1543795875,0,TRUE,6.83833614,TRUE,0.9852391,1,109
"mp-388","ErPb3",0,4,2,113.183737653925,11.5734929300913,28.2959344134814,3,221,4.83720705,90,-4.1651036925,-4.1651036925,-0.2386886875,0,TRUE,7.05274701,FALSE,7.63e-05,0,232
"mp-389","SiPd",0,8,2,118.286817674563,7.55288346794697,14.7858522093204,7,62,3.4403273,90,-5.841498595,-5.805998595,-0.503398675,0,TRUE,7.88868945,FALSE,0,0,60
"mp-390","TiO2",2.0586,6,2,68.7839722548297,3.85613905791695,11.463995375805,4,141,3.78253951486158,110.107144078053,-8.96771143,-9.42571143,-3.49608828361111,0.0063979666666664,FALSE,1.95774287,FALSE,0,0,30
"mp-391","HoAl2",0,6,2,118.772790830129,6.12061120953618,19.7954651383548,3,227,5.51752019023348,60.0000104229014,-4.53668277,-4.53668277,-0.512162593333333,0,TRUE,5.80546216,FALSE,5e-07,0,80
"mp-392","U3Sb4",0,14,2,394.152508169788,10.1205387141332,28.1537505835563,3,220,8.00009962147082,109.471220634491,-7.46923096571429,-7.57894525142857,-0.380340252857143,0,TRUE,9.41472981,TRUE,13.1684386,6,337
"mp-393","Pd16S7",0,23,2,363.580457348268,8.80176398647708,15.8078459716638,3,217,7.78766906274539,109.471223406375,-5.10876230304348,-5.26184925956522,-0.399533693125,0,TRUE,4.73704939,FALSE,3.6e-06,0,96
"mp-394","CeZn5",0,6,2,104.08257624392,7.4531119317604,17.3470960406533,6,191,5.33199588446619,90,-2.29931027166667,-2.29931027166667,-0.2606757375,0.0105614985858584,FALSE,4.19371054,TRUE,1.0213106,1,178
"mp-395","ZrAl3",0,8,2,137.623499455851,4.15470778913101,17.2029374319814,4,139,3.99506384807203,102.70035618301,-5.43336371,-5.43336371,-0.48725668,0,TRUE,7.23535637,FALSE,1e-07,0,66
"mp-397","KCd13",0,28,2,666.435460558932,7.47721735485222,23.8012664485333,3,226,9.8044749654106,59.9999999458692,-0.980879591428572,-0.980879591428572,-0.0445963180714285,0.0001435828571426,FALSE,2.02849289,FALSE,0,0,19
"mp-398","ErGa3",0,4,2,74.7163966780994,8.36594680087569,18.6790991695249,3,221,4.21184105,90,-3.9396572675,-3.9396572675,-0.526655548125,0,TRUE,3.63639867,FALSE,1.4e-06,0,130
"mp-399","Te2Pt",0,3,2,77.7045654901049,9.62252563087982,25.901521830035,2,164,4.04696682,90,-4.51619602,-4.79752935333333,-0.678280984444444,0,TRUE,7.28746209,FALSE,2e-07,0,130
"mp-400","NdAl2",0,6,2,128.843643354133,5.10894081106427,21.4739405590221,3,227,5.66924845078369,59.9999571271274,-4.58836055666667,-4.58836055666667,-0.501927525833333,0,TRUE,5.79877094,FALSE,2e-07,0,73
"mp-401","Sc2S3",1.035,20,2,428.62771743663,2.88397263397731,21.4313858718315,7,70,6.40031046586445,100.622594848948,-6.9276981135,-7.2294981135,-2.214640551375,0,TRUE,3.40977017,FALSE,0,0,53
"mp-402","CdP2",1.4898,12,2,280.587558773964,4.12746939973846,23.382296564497,7,33,5.19751104,90,-4.03728933666667,-4.03728933666667,-0.120791078888889,0.0008393700000004,FALSE,2.86325927,FALSE,0,0,63
"mp-404","MnTe",0,8,2,203.836361760412,5.94813510691608,25.4795452200515,6,194,4.17065013,89.9999261011248,-6.23481963,-6.44581963,-0.29315903729885,0.0102324967672418,FALSE,6.75843142,TRUE,19.9158406,2,77
"mp-405","Ga2Pd5",0,28,2,411.995602695914,10.8266045629814,14.7141286677112,7,62,4.07776418,90,-5.13059696107143,-5.13059696107143,-0.565511090357143,0,TRUE,4.61827072,FALSE,0,0,215
"mp-406","CdTe",0.5846,2,2,70.7116228306963,5.63623950291692,35.3558114153482,3,216,4.64160843860587,60.0000077864315,-2.49140647,-2.70240647,-0.669308643333333,0,TRUE,1.77816521,FALSE,0,0,100
"mp-408","Mg2Ge",0.152,3,2,64.5758686374221,3.11788855610642,21.5252895458074,3,225,4.50327379368152,60.0000118469982,-2.87677346666667,-2.87677346666667,-0.268910815,0,TRUE,3.30060476,FALSE,0,0,44
"mp-409","NaS",0.8685,12,2,265.213649690846,2.06823280699142,22.1011374742371,6,189,7.56804732,90,-3.55415982833333,-3.80565982833333,-1.0761722481717,0.0022100629166668,FALSE,2.09237466,FALSE,0,0,27
"mp-410","YbPt2",0,6,2,108.662126343485,17.2135208115726,18.1103543905808,3,227,5.35629386909574,59.9999979451056,-5.63952377666667,-5.63952377666667,-1.07889880333333,0,TRUE,5.43937271,FALSE,0,0,148
"mp-411","ErCo3",0,12,2,171.08850620147,10.0180205136429,14.2573755167892,2,166,8.48348419367057,34.0999219770422,-6.67914519916667,-6.67914519916667,-0.205977150416667,0,TRUE,4.73625646,TRUE,11.8462948,12,122
"mp-413","UP2",0,6,2,113.28174227707,8.79440195222326,18.8802903795116,4,129,3.7988511,90,-8.17020606833333,-8.17020606833333,-0.797534393888888,0.002755556666667,FALSE,10.17721573,TRUE,3.0349836,2,107
"mp-414","LuSe",0,2,2,43.7756824582786,9.63219029118293,21.8878412291393,3,225,3.95593565875132,60.0000190434853,-5.59354771,-5.82954771,-1.82111671117188,0,TRUE,5.92175901,FALSE,4.3e-05,0,105
"mp-415","IrN2",0.32,12,2,112.607763385307,12.9902653905534,9.3839802821089,1,14,4.933213,72.0617662941169,-8.09796309166667,-8.33862975833333,0.165178251666666,0.165178251666665,FALSE,8.52349368,FALSE,7.82e-05,0,84
"mp-416","Cr3Os",0,8,2,98.4413228543693,11.680237446064,12.3051653567962,3,223,4.61735076,90,-10.02075622,-10.02075622,0.0258712399999989,0.0258712399999989,FALSE,7.40707988,FALSE,0.0001209,0,124
"mp-417","MnRh",0,2,2,27.7490424511164,9.44556459362043,13.8745212255582,3,221,3.02748965,90,-8.4414766,-8.4414766,-0.178315018965517,0,TRUE,5.94735102,TRUE,4.1884191,2,70
"mp-419","YbB6",0,7,2,69.4246990678681,5.69036974567719,9.91781415255258,3,221,4.10996385,90,-6.40551376571428,-6.40551376571428,-0.460376779285713,0,TRUE,4.18768211,FALSE,0,0,95
"mp-421","DyNi2",0,6,2,88.9720150545818,10.4473966413044,14.8286691757636,3,227,5.01098297226179,59.9999535302192,-5.838355935,-5.838355935,-0.449335868333333,0,TRUE,6.03719267,FALSE,1.9e-06,0,94
"mp-422","BeS",3.1453,2,2,28.8807210484378,2.36179232999197,14.4403605242189,3,216,3.4438238808145,60.0000260277515,-4.99463759,-5.24613759,-1.3082062240625,0,TRUE,3.64446235,FALSE,0,0,20
"mp-423","GePd2",0,9,2,135.707181389094,10.479563893685,15.0785757098993,6,189,6.69313881,90,-5.53306535111111,-5.53306535111111,-0.538801526111111,0,TRUE,5.78128463,FALSE,0,0,78