"material_id","formula_pretty","band_gap","nsites","nelements","volume","density","density_atomic","crystal_symmetry","symmetry_number","sides_abc","angles_abc","uncorrected_energy_per_atom","energy_per_atom","formation_energy_per_atom","energy_above_hull","is_stable","efermi","is_magnetic","total_magnetization","num_magnetic_sites","atomic_number"
"mp-1788","As2O5",1.426,28,2,343.772203265221,4.44083177813777,12.2775786880436,7,19,4.64018029,90,-5.93509814892857,-6.42581243464286,-1.56128666803571,0.000179878571429,FALSE,1.34530062,FALSE,0,0,65
"mp-1791","Al5Rh2",0,28,2,423.02604653286,5.34980486506231,15.1080730904593,6,194,7.89879136,90,-5.52051115892857,-5.52051115892857,-0.741011888928571,0,TRUE,8.05435312,FALSE,1e-07,0,97
"mp-1793","Zr3Te",0,16,2,367.77766445041,7.24707231287082,22.9861040281506,4,82,5.66184193201231,83.6947399592953,-7.69657619875,-7.80207619875,-0.605474252916667,0,TRUE,6.18747201,FALSE,8e-07,0,132
"mp-1795","NbF3",0,4,2,73.8251931189667,3.37171411492441,18.4562982797417,3,221,4.195028,90,-6.55380694,-6.90030694,-2.941371454375,0.167110309666667,FALSE,1.70960503,TRUE,2.0028975,1,59
"mp-1796","Tl5Te3",0,16,2,573.078823325103,8.14054378144195,35.8174264578189,4,82,9.35922365406197,120.738291528956,-2.803405063125,-2.961655063125,-0.306263386458333,0.142896630205965,FALSE,4.9056388,FALSE,0.0040241,0,428
"mp-1797","MnNi",0,2,2,24.7334489422941,7.62891799105506,12.366724471147,4,123,2.948657,90,-7.51125475,-7.51125475,-0.0401787639655175,0.0368983973563183,FALSE,6.22862361,TRUE,4.3657971,2,53
"mp-1798","CeMg3",0,4,2,100.275279902719,3.52775178728047,25.0688199756796,3,225,5.21478349218284,60.0000071461258,-2.711811235,-2.711811235,-0.0283289087499998,0,TRUE,4.6793526,TRUE,1.1719309,1,82
"mp-1799","TaCo2",0,6,2,74.5769716937831,13.3068629021289,12.4294952822972,3,227,4.72468909738893,60.0000019647464,-8.90862160666667,-8.90862160666667,-0.217150533333335,0.0252506421481477,FALSE,6.06462122,TRUE,2.1887716,4,100
"mp-1800","Nd2C3",0,20,2,318.950576339993,6.75805848008563,15.9475288169997,3,220,7.45501375932502,109.471220673598,-7.610683404,-7.610683404,-0.1662251355,0,TRUE,5.16620061,FALSE,1e-07,0,72
"mp-1802","NbS2",0,3,2,63.1720683309811,4.12785350799663,21.057356110327,2,166,6.61550313510112,29.7620619392865,-7.10187175333333,-7.43720508666667,-1.31247016208333,0.0367022749999996,FALSE,3.78108485,FALSE,0,0,57
"mp-1804","Fe3N",0,8,2,81.6114269683588,7.38761951028877,10.2014283710448,6,182,4.6814067835633,90.0006479556543,-8.50461442625,-8.59486442625,-0.158224787499998,0,TRUE,6.23717804,TRUE,14.6286057,6,59
"mp-1805","ErRh5",0,6,2,102.626113794204,11.0316280766584,17.104352299034,6,191,5.22686622674524,90,-7.18972198166667,-7.18972198166667,-0.291512288333333,0.0879130558333329,FALSE,5.25642295,FALSE,0.0006178,0,248
"mp-1806","RbO3",0.8986,16,2,307.775110895309,2.88035645791023,19.2359444309568,1,14,6.176114,56.1199441954269,-4.602539651875,-4.602539651875,-0.647389600312501,0.0824417684374996,FALSE,-0.24134234,TRUE,3.9993257,12,53
"mp-1808","Ti2Ni",0,24,2,355.362900535831,5.7728644215095,14.8067875223263,3,227,7.95037742033494,60.0023695690264,-7.4677021775,-7.4677021775,-0.277328606388889,0,TRUE,6.57345179,TRUE,3.3005209,8,50
"mp-1811","HgTe",0,2,2,58.2722818048875,9.35217052409547,29.1361409024438,3,225,4.35170059440881,60,-1.74228192,-1.95328192,-0.229788790833333,0.149671325,FALSE,4.1818758,FALSE,0.0002341,0,132
"mp-1812","Hg5Au6",0,22,2,451.084701579587,16.0850578171886,20.5038500717994,6,193,7.11620121,90,-1.90441776863636,-1.90441776863636,0.0193725790909091,0.0193725790909076,FALSE,3.52511268,FALSE,0.0003715,0,715
"mp-1813","Ba2Mg17",0,19,2,503.247609460792,2.26962534855333,26.4867162874101,2,166,8.00991333377765,82.9902055216043,-1.69043876631579,-1.69043876631579,-0.0566118857894738,0,TRUE,2.77710655,FALSE,2.9e-06,0,56
"mp-1814","BaAg5",0,6,2,136.982489658465,8.20275388423451,22.8304149430775,6,191,5.89040616694303,90.0001270581024,-2.84394669166667,-2.84394669166667,-0.163654198888889,0,TRUE,2.75492064,FALSE,1e-07,0,244
"mp-1818","SiF4",7.7594,5,2,73.7070788485311,2.34478744133424,14.7414157697062,3,217,4.57485224955589,109.471215229645,-5.71912202,-6.08872202,-3.47447524,0,TRUE,-5.05552997,FALSE,0,0,41
"mp-1819","SbO2",2.0288,12,2,153.680189715576,6.64555385326045,12.806682476298,1,15,4.86089248567776,103.28795669063,-6.05252983,-6.51052983,-1.83640360916667,0.0019360895833226,FALSE,5.64122176,FALSE,0,0,59
"mp-1820","YbS",2.2246,2,2,44.0243187641388,7.73628927865263,22.0121593820694,3,225,3.9634116564718,60.0000104730628,-5.085048025,-5.336548025,-2.4985189515625,0,TRUE,2.08335964,FALSE,0,0,86
"mp-1821","WSe2",1.4465,6,2,131.125453193162,8.65592175403535,21.8542421988603,6,194,3.31993213,90,-7.20752920833333,-7.522195875,-0.872211479895833,0,TRUE,3.4107938,FALSE,0,0,108
"mp-1822","TiAs",0,8,2,138.531145786854,5.88734803498519,17.3163932233568,6,194,3.64445296,90,-7.19743278,-7.19743278,-0.920127569166667,0,TRUE,6.59644856,FALSE,1e-07,0,55
"mp-1823","Ti3Al",0,8,2,132.479515287758,4.27626820357603,16.5599394109698,6,194,5.74770194004081,90,-7.1371698425,-7.1371698425,-0.2791568725,0,TRUE,6.26997544,FALSE,6.3e-06,0,57
"mp-1824","NdNi5",0,6,2,82.032576818458,8.86029578116186,13.6720961364097,6,191,4.910592240057,90,-5.88725299,-5.88725299,-0.275781184583334,0,TRUE,6.46727401,TRUE,1.8836372,6,172
"mp-1825","Cu2Sb",0,6,2,96.8675574193341,8.53182383886693,16.1445929032223,4,129,4.02029744,90,-4.08589020833333,-4.14989020833333,-0.0407520150000001,0,TRUE,8.16491135,FALSE,0,0,80
"mp-1826","Ta3S2",0,20,2,367.296648645103,10.9764512726636,18.3648324322551,7,39,5.6501647805379,90,-9.52663894,-9.72783894,-0.95859241525,0,TRUE,5.94690126,FALSE,0,0,162
"mp-1827","SrGa4",0,5,2,105.093530754033,5.79110331540883,21.0187061508066,4,139,4.44829314402999,111.1198922563,-3.17977598,-3.17977598,-0.419400471333334,0,TRUE,3.54455883,FALSE,0,0,131
"mp-1828","ThOs2",0,6,2,114.444408986113,17.7741659178847,19.0740681643521,3,227,5.44966556295032,60.0000061029177,-10.2119488233333,-10.2119488233333,-0.25575112,0,TRUE,8.437407,FALSE,9.9e-06,0,166
"mp-1830","NpTe",0,2,2,53.9513194551746,11.2218301571917,26.9756597275873,3,221,3.778627,90,-8.595698805,-8.806698805,-0.761156017708334,0.0742643526562503,FALSE,10.94854836,TRUE,4.9733867,1,52
"mp-1831","SrAu5",0,6,2,128.297251247062,13.8806547209607,21.3828752078437,6,191,5.66184737,90,-3.45943609833333,-3.45943609833333,-0.449618856111111,0,TRUE,4.37720784,FALSE,3.5e-06,0,354
"mp-1832","LaPt5",0,6,2,112.122109705725,16.5032657760267,18.6870182842876,6,191,5.42854568,90,-6.633971265,-6.633971265,-0.752025647499999,0,TRUE,7.62429964,FALSE,0,0,369
"mp-1834","NdAl4",0,5,2,102.360433471464,4.09079033306707,20.4720866942928,4,139,4.2421780896983,109.240509314658,-4.253355586,-4.253355586,-0.3032654355,0.0502529579999997,FALSE,6.27338496,FALSE,1e-07,0,99
"mp-1836","TlSe",0.0780000000000002,8,2,235.337779735023,7.99706055592303,29.4172224668779,4,140,6.76555673197386,105.883829257746,-3.20445497625,-3.44045497625,-0.511177664088541,0,TRUE,3.62543786,FALSE,0,0,115
"mp-1837","TbCu",0,2,2,41.2605612690306,8.95340142043883,20.6302806345153,3,221,3.45550647,90,-4.60589193,-4.60589193,-0.239105545,0,TRUE,4.79698592,FALSE,2.7e-06,0,94
"mp-1840","TiO2",2.2862,24,2,258.446022777526,4.1051598955941,10.7685842823969,7,61,5.14911908,90,-8.95390211416667,-9.41190211416667,-3.48227896777778,0.0202072824999994,FALSE,2.71271396,FALSE,0,0,30
"mp-1841","SiIr3",0,8,2,110.298769912782,18.2085182644015,13.7873462390977,4,140,5.25407296450602,118.783473479898,-8.379553505,-8.379553505,-0.3943983625,0,TRUE,10.00152093,FALSE,0,0,168
"mp-1842","NbAl3",0,4,2,63.0959901724175,4.57535208662772,15.7739975431044,4,139,3.83396608909981,112.184511383895,-5.76353898,-5.76353898,-0.4290308475,0,TRUE,7.64565946,FALSE,2e-07,0,67
"mp-1845","CaBe13",0,28,2,270.428940714053,1.93098510642983,9.65817645407333,3,226,7.25865353444865,60.0002890070259,-3.71354542607143,-3.71354542607143,-0.097976345714286,0,TRUE,3.9080229,FALSE,1e-07,0,20
"mp-1848","Te2Ru",0.1141,12,2,266.939735495903,8.86492604270469,22.2449779579919,3,205,6.43879219,90,-5.51823017083333,-5.79956350416667,-0.61255872861111,0.0062950974999997,FALSE,7.94867573,FALSE,0,0,96
"mp-1849","Mn2P",0,9,2,103.57003898873,6.77473960774347,11.5077821098589,6,189,6.07694991063138,90,-8.42631612555556,-8.42631612555556,-0.513871761954023,0,TRUE,8.4242468,TRUE,10.3898666,6,40
"mp-1851","SnPd2",0,12,2,202.363881469499,10.8824109032364,16.8636567891249,7,62,4.3672498,89.9941630730489,-5.33045263833333,-5.33045263833333,-0.540674146666667,0,TRUE,7.24642292,FALSE,0,0,96
"mp-1852","UF5",0.7456,6,2,92.1923369442343,5.99826705719376,15.3653894907057,4,87,4.47794156845138,78.7474967115467,-6.969472915,-7.354472915,-3.87967210708333,0,TRUE,0.67060273,TRUE,1,1,128
"mp-1853","Sr3P14",1.6551,34,2,809.222418757249,2.85843115071039,23.8006593752132,1,14,6.36835151767412,90,-5.22247173588235,-5.22247173588235,-0.466312003333334,0,TRUE,3.70231425,FALSE,0,0,76
"mp-1854","EuPd2",0,6,2,117.31917399258,10.3268932611179,19.55319566543,3,227,5.4949135461433,60.0000895453135,-7.59125155,-7.59125155,-0.71899641,0,TRUE,4.58546854,TRUE,14.0870801,2,109
"mp-1857","YbCd",0,2,2,51.3710838159125,9.2270301089737,25.6855419079563,3,221,3.71740241,90,-1.627282275,-1.627282275,-0.396033255,0,TRUE,1.90906924,FALSE,2.7e-06,0,118
"mp-1858","HfO2",4.2272,24,2,261.35354409774,10.6989136631272,10.8897310040725,7,61,5.03775264,90,-10.1553875733333,-10.6133875733333,-3.99653208916667,0.0241271474999997,FALSE,3.41053615,FALSE,2.6e-06,0,80
"mp-1859","NpMn2",0,6,2,83.8231858292523,13.7432452135086,13.9705309715421,3,227,4.91239243126931,60,-10.2381479233333,-10.2381479233333,0.185788831795976,0.185788831795977,FALSE,11.36063356,TRUE,4.6308511,6,25
"mp-1860","LaSi",0,8,2,206.562443546413,5.369708543211,25.8203054433016,7,62,4.00733505,90,-5.919055845,-5.883555845,-0.7028932775,0.0124236225,FALSE,8.23969548,FALSE,2.3e-05,0,71
"mp-1861","Cu2Te",0,6,2,136.739767956233,6.18585247396143,22.7899613260388,6,191,4.30401446571047,90,-3.68676685833333,-3.827433525,-0.0468604472222219,0.137792246666664,FALSE,5.21534876,FALSE,0.0004067,0,81
"mp-1864","LaP5",0,24,2,526.034701816195,3.70944097047605,21.9181125756748,1,11,9.68928753,76.0512479362544,-5.90016104125,-5.90016104125,-0.566407768194445,0,TRUE,7.43538922,FALSE,0,0,117
"mp-1865","UN",0,2,2,29.006771748423,14.4281818124802,14.5033858742115,3,225,3.44882753085047,60.0000106667234,-11.12350874,-11.30400874,-1.4900562725,0,TRUE,12.23228116,TRUE,1.4861672,1,99
"mp-1866","KO2",0,3,2,49.2164578666745,2.39878116364623,16.4054859555582,4,139,3.8547797042609,116.700325552243,-4.54862408666667,-4.65595742,-0.9880319635,0,TRUE,0.36778804,TRUE,1,2,27
"mp-1867","Ta2Ni",0,6,2,92.8956730882574,15.0363242538744,15.4826121813762,4,140,4.83921993420443,76.4790473834778,-10.0669979133333,-10.0669979133333,-0.2351006,0,TRUE,6.40373286,FALSE,8.59e-05,0,101
"mp-1868","VS",0,8,2,108.711647829282,5.0716013889583,13.5889559786602,7,62,3.208094,90,-7.50465828875,-7.75615828875,-1.1459803203125,0.0628147878125,FALSE,8.70232476,FALSE,0.0206354,0,39
"mp-1869","GaPd2",0,12,2,175.547070150131,10.6913068927763,14.6289225125109,7,62,4.05957263,90,-5.10803047416667,-5.10803047416667,-0.645410593333333,0,TRUE,4.64767643,FALSE,0,0,77
"mp-1871","Fe2C",0,6,2,56.9824822425745,7.20957869267037,9.49708037376242,7,58,2.823504,90,-8.66352764666667,-8.66352764666667,0.0593749908333336,0.0593749908333318,FALSE,6.1922749,TRUE,6.5085645,4,32
"mp-1873","ZnF2",3.4592,6,2,69.2922752520955,4.95609014470292,11.5487125420159,4,136,3.13289021,90,-3.98923459333333,-4.29723459333333,-2.603000745,0,TRUE,-1.60507351,FALSE,0,0,39
"mp-1874","NbS2",0,3,2,145.863293275371,1.78773588619827,48.621097758457,6,187,3.37143491,90,-7.13493516,-7.47026849333333,-1.34553356875,0.0036388683333328,FALSE,-1.62520329,TRUE,0.8594924,1,57
"mp-1875","TeF6",4.3975,28,2,404.176073934322,3.97025311560684,14.4348597833686,7,62,4.97821264,90,-4.07975047357143,-4.47575047357143,-2.38829623095238,0,TRUE,-4.00975488,FALSE,0,0,97
"mp-1876","SnS",0.1031,2,2,49.0461256303157,5.10474119105264,24.5230628151578,3,225,4.10871986720689,60.0000093090082,-4.47149832,-4.72299832,-0.6499874590625,0.0391963012499996,FALSE,6.43547674,FALSE,0,0,66
"mp-1877","HoAl3",0,4,2,74.8802136061543,5.4525076349423,18.7200534015386,3,221,4.21491698,90,-4.3765267425,-4.3765267425,-0.4217426525,0.0020727674999996,FALSE,5.96672729,FALSE,3e-07,0,93
"mp-1878","HfBe13",0,28,2,247.093105821374,3.97368967529477,8.82475377933478,3,226,7.04352183948878,60.0005832709272,-4.35901921714286,-4.35901921714286,-0.175479483214286,0,TRUE,4.60866051,FALSE,4e-07,0,72
"mp-1879","SmS",0,4,2,163.551266633407,3.70432886837245,40.8878166583518,4,139,11.0043517209843,159.486606638596,-6.218935645,-6.470435645,-2.0429176440625,0.231406745,FALSE,1.6007164,FALSE,0.0006188,0,78
"mp-1880","SbF3",4.4396,8,2,125.240729281797,4.74015139645492,15.6550911602246,7,40,4.36664112027309,90,-4.80696678,-5.15346678,-2.687607244375,0,TRUE,0.40286621,FALSE,0,0,69
"mp-1882","CaCu5",0,6,2,88.5733975693363,6.70804303150844,14.7622329282227,6,191,5.04562859,90,-3.87228648666667,-3.87228648666667,-0.122014281666666,0,TRUE,5.55275908,FALSE,0,0,136
"mp-1883","SnTe",0.0419,2,2,64.6682134482932,6.32470507046365,32.3341067241466,3,225,4.50542038545851,59.999996066185,-3.86259819,-4.07359819,-0.497159315833334,0,TRUE,6.32206963,FALSE,0,0,102
"mp-1884","Ca5Ge3",0,16,2,439.622455683914,3.16007559654266,27.4764034802446,4,140,7.70894519192452,114.795670419467,-3.6151205625,-3.6151205625,-0.627985191875,0,TRUE,3.24216008,FALSE,2e-07,0,144
"mp-1885","AlIr",0,2,2,26.8532476354799,13.554700780624,13.4266238177399,3,221,2.99455485,90,-7.250982695,-7.250982695,-0.95897769,0,TRUE,10.70749902,FALSE,5e-07,0,90
"mp-1886","TbTl3",0,4,2,105.296131399214,12.1757665542262,26.3240328498036,3,221,4.72212492,90,-3.1809327275,-3.1809327275,-0.2503588425,0,TRUE,6.2434372,FALSE,2e-07,0,227
"mp-1887","MoP2",0,6,2,88.4521517815565,5.92814072806792,14.7420252969261,7,36,3.16339256770204,90,-7.739559885,-7.739559885,-0.515474843888889,0,TRUE,9.23522111,FALSE,0,0,57
"mp-1888","RbGe",1.015,64,2,2306.61720150455,3.64230948716314,36.0408937735087,3,218,13.21270815,90,-2.99349908484375,-2.99349908484375,-0.19171812109375,0,TRUE,1.011171,FALSE,0,0,69
"mp-1890","BMo",0,8,2,82.4905796482143,8.59560966377348,10.3113224560268,4,141,3.11623692919622,100.237216151724,-9.26475576,-9.26475576,-0.502234819583332,0,TRUE,9.71915682,FALSE,0,0,47
"mp-1891","SmAl4",0,5,2,102.308466898772,4.19216769387662,20.4616933797545,4,139,6.45074238108003,141.711169756648,-4.224415528,-4.224415528,-0.284237637,0.0697584100000003,FALSE,6.26380854,FALSE,0.0036816,0,101
"mp-1892","Ba2N",0,3,2,108.787230679784,4.40614552229038,36.2624102265948,2,166,8.02252587901508,29.2085232053117,-4.46327877333333,-4.58361210666667,-0.525463838333334,0,TRUE,2.41519529,FALSE,4.4e-06,0,63
"mp-1894","WC",0,2,2,20.9177393507153,15.5474610864121,10.4588696753576,6,187,2.91659415,90,-11.215095135,-11.215095135,-0.12169727375,0,TRUE,7.93987235,FALSE,0,0,80
"mp-1895","TaO",0,2,2,22.8919634927111,14.2861774440947,11.4459817463556,3,225,3.18712683849294,60,-9.29139334,-9.63489334,-1.232660169375,1.1028763505,FALSE,8.35288074,FALSE,0.0001044,0,81
"mp-1897","PuRh2",0,6,2,101.619111149619,14.7005564137767,16.9365185249366,3,227,5.23797550602597,60,-10.1569050916667,-10.1569050916667,-0.491420401666667,0,TRUE,10.19301901,TRUE,9.5720568,6,45
"mp-1898","CeSi2",0,6,2,122.170495676365,5.33585838317543,20.3617492793941,4,141,4.18000570907481,105.979933564408,-6.253170115,-6.20583678166667,-0.61126171,0,TRUE,8.77943914,TRUE,1.8675578,2,72
"mp-1900","CaAs3",0,8,2,187.79114125868,4.68373335355513,23.473892657335,5,2,5.89143957808753,80.3096067706506,-4.55403506375,-4.55403506375,-0.55829629,0,TRUE,4.54491356,FALSE,0,0,86
"mp-1901","NaO2",0,6,2,78.5017690475842,2.32633400784974,13.0836281745974,7,58,3.3693124,89.9974717986096,-4.54537983666667,-4.65271317,-0.914078931350574,0,TRUE,0.73437252,TRUE,1.9999995,4,19
"mp-1902","MnPd",0,2,2,30.0838605047739,8.90648118083723,15.0419302523869,3,221,3.11012508,90,-7.36354666,-7.36354666,-0.192598108965517,0.0093466334137923,FALSE,4.71010473,TRUE,4.5463171,2,71
"mp-1903","BaAl4",0,5,2,118.226849992201,3.44466966780343,23.6453699984402,4,139,4.56328809210368,110.449845662745,-3.621437192,-3.621437192,-0.24118154,0,TRUE,5.12808595,FALSE,1e-07,0,95
"mp-1907","TiTe2",0,3,2,85.0883716361366,5.91449317480571,28.3627905453789,2,164,3.8242096,90,-5.42417690333333,-5.70551023666667,-0.978142302222223,0,TRUE,5.92997653,FALSE,4e-07,0,74
"mp-1908","Pr5Ge4",0,36,2,998.665261340848,6.61843195391303,27.7407017039124,7,62,8.017251,90,-5.49602429805556,-5.49602429805556,-0.78528649861111,0.020683366388889,FALSE,4.28368469,FALSE,0.514474,0,332
"mp-1909","LaMg2",0,6,2,169.418063923158,3.67583900224582,28.236343987193,3,227,6.21095393675667,59.9999768413676,-2.83669334,-2.83669334,-0.124504271666667,0.0005737816666666,FALSE,4.45999468,FALSE,8.4e-06,0,69
"mp-1910","CeNi5",0,6,2,80.2620829873789,8.97038157141827,13.3770138312298,6,191,4.84125093038116,90,-6.15041062,-6.15041062,-0.344781860833334,0,TRUE,8.17185468,TRUE,1.0948136,6,170
"mp-1911","CeSn3",0,4,2,105.25730919314,7.82877574926349,26.314327298285,3,221,4.72154731,90,-5.026056615,-5.026056615,-0.535605435,0,TRUE,8.9313597,TRUE,0.8891741,1,158
"mp-1912","ZnAg",0,2,2,31.0282906048228,9.27326495731408,15.5141453024114,3,221,3.14233597,90,-2.095782925,-2.095782925,-0.0496331183333333,0.0048954431578938,FALSE,4.75729397,FALSE,6e-07,0,77
"mp-1913","ErPt3",0,4,2,67.5876611139533,18.4881958178645,16.8969152784883,3,221,4.07338756,90,-6.737716335,-6.737716335,-1.0424366425,0,TRUE,6.40463755,FALSE,0.0001489,0,224
"mp-1914","YGa2",0,3,2,62.577426936761,6.05948800417408,20.8591423122537,6,191,4.17397266,90,-4.83798789666667,-4.83798789666667,-0.663766843888889,0,TRUE,3.8394883,FALSE,3e-06,0,70
"mp-1915","Fe2B",0,6,2,54.8289944139807,7.42007758383026,9.13816573566345,4,140,4.17552052723864,104.868364281972,-8.180638175,-8.180638175,-0.307493444722221,0,TRUE,6.65516448,TRUE,9.2991168,4,31
"mp-1916","YbSb",0,2,2,64.9591815826102,7.53591570748373,32.4795907913051,3,225,4.5121671646906,60,-3.47617434,-3.57217434,-0.73786958,0.263779816041667,FALSE,3.19901529,FALSE,0.0004756,0,121
"mp-1918","FeRh",0,2,2,26.7870608368758,9.84099781224928,13.3935304184379,3,221,2.99209254,90,-7.961014355,-7.961014355,-0.0438498149999997,0,TRUE,6.00530121,TRUE,4.3682159,2,71
"mp-1919","ZrCr2",0,12,2,179.863178731135,7.20912704468032,14.9885982275946,6,194,5.07715022000368,89.9999999981311,-9.2969364075,-9.2969364075,-0.0123378841666657,0.0200938424999996,FALSE,5.48243432,FALSE,3.36e-05,0,64
"mp-1920","Ni5P4",0,36,2,428.492075132575,6.46962710249198,11.9025576425715,6,186,6.73183116,90,-6.09435882944444,-6.09435882944444,-0.477259559814815,0,TRUE,9.3928422,FALSE,2e-07,0,157
"mp-1921","ThTe",0,2,2,57.8227769395323,10.3279897658797,28.9113884697661,3,221,3.86693004,90,-6.378930355,-6.589930355,-1.31134828333333,0,TRUE,9.25779967,FALSE,7.12e-05,0,142
"mp-1922","RuSe2",0.3138,12,2,212.950755996081,8.07816832294596,17.7458963330067,3,205,5.97163235,90,-5.84697056916667,-6.16163723583333,-0.739562070729166,0,TRUE,5.90710577,FALSE,0,0,78
"mp-1924","TbSi",0,8,2,174.548693520355,7.1163826217206,21.8185866900444,7,62,3.83896042,90,-5.8544283875,-5.8189283875,-0.789086322499999,0,TRUE,5.39169897,FALSE,0,0,79
"mp-1925","ZrS",0,2,2,36.1141314288654,5.66886680869786,18.0570657144327,3,225,3.71020059459431,60,-7.684835525,-7.936335525,-1.5942602765625,0.0907740650000006,FALSE,7.2950712,FALSE,0.000351,0,56
"mp-1926","HoFe2",0,6,2,96.6389352608267,9.50628950403161,16.1064892101378,3,227,5.15097028752592,60,-7.27384326833333,-7.27384326833333,-0.0996928383333338,0,TRUE,4.40758587,TRUE,7.6449805,6,93