"material_id","formula_pretty","band_gap","nsites","nelements","volume","density","density_atomic","crystal_symmetry","symmetry_number","sides_abc","angles_abc","uncorrected_energy_per_atom","energy_per_atom","formation_energy_per_atom","energy_above_hull","is_stable","efermi","is_magnetic","total_magnetization","num_magnetic_sites","atomic_number"
"mp-973","U2N3",0,5,2,68.4326249608352,12.5713229062194,13.686524992167,2,164,3.70998015282944,90,-10.899394298,-11.115994298,-1.597533339,0.0157946474999999,FALSE,10.73771058,TRUE,2.9999541,2,106
"mp-974","Tm2S3",0.656,20,2,412.24177814763,6.99375273928574,20.6120889073815,7,62,3.79536446,90,-6.3151630785,-6.6169630785,-2.34475898904167,0.0332666567499995,FALSE,4.33831291,FALSE,0,0,101
"mp-975","SF6",5.9124,21,2,259.586534933624,2.80288878849884,12.3612635682678,1,12,4.71167265608929,61.2238764609553,-3.93735361809524,-4.33335361809524,-2.10402166497024,0.0013654619047622,FALSE,-3.98294875,FALSE,0,0,61
"mp-976","V6Si5",0,22,2,283.132526810431,5.23237272161346,12.869660309565,7,72,4.80213659215977,114.231216323178,-7.96306303909091,-7.93079031181818,-0.509878805454545,0.0141458028787875,FALSE,8.55858934,FALSE,0.0045082,0,171
"mp-977","LuIn3",0,4,2,95.6896789845743,9.01370839222359,23.9224197461436,3,221,4.57391791,90,-3.5192803925,-3.5192803925,-0.325279965,0,TRUE,6.99921015,FALSE,3.5e-06,0,169
"mp-978","Sr2Sn",0.1524,12,2,459.453449415436,4.24953134423608,38.2877874512863,7,62,5.37720745,90.0000317293381,-3.08213681,-3.08213681,-0.619283889444444,0,TRUE,3.29581967,FALSE,0,0,88
"mp-979","ZrSb2",0,24,2,595.168965226166,7.47156551213954,24.7987068844236,7,58,3.93402915,90,-6.15250565833333,-6.28050565833333,-0.678604621666667,0,TRUE,7.61738155,FALSE,2e-07,0,91
"mp-980","USi2",0,3,2,54.9273050747896,8.89412730662856,18.3091016915965,6,191,4.05058503,90,-7.71096966,-7.66363632666667,-0.282954303333334,0.023877570833334,FALSE,10.72841894,TRUE,2.300827,1,106
"mp-981","SrF2",6.7674,3,2,48.7419452637135,4.27950943115144,16.2473150879045,3,225,4.10020863366716,60.000011368696,-5.76204224666667,-6.07004224666667,-4.23255845055556,0,TRUE,-1.85096453,FALSE,0,0,47
"mp-982","TmPd3",0,4,2,66.8746317872399,12.1221685432533,16.71865794681,3,221,4.05901324,90,-5.9306988825,-5.9306988825,-0.926828669166666,0,TRUE,5.1801369,FALSE,5e-07,0,161
"mp-983","RhSe2",0,12,2,221.480770792936,7.82209544900668,18.4567308994113,3,205,6.05032529000044,89.9999804920727,-5.17944708333333,-5.49411375,-0.708736808229167,0.0337005245833337,FALSE,5.9622969,FALSE,7e-07,0,79
"mp-984","BN",4.274,4,2,42.1326017323065,1.95624094875485,10.5331504330766,6,194,2.512428,90,-8.7888233775,-8.9693233775,-1.46138002958333,0,TRUE,2.15862988,FALSE,0,0,12
"mp-985","TmCu",0,2,2,38.7684542471478,9.95764413136933,19.3842271235739,3,221,3.38448683,90,-4.581016995,-4.581016995,-0.293495948333333,0,TRUE,4.70261263,FALSE,7.3e-06,0,98
"mp-986","CeZn",0,2,2,47.7091208214565,7.15339720763578,23.8545604107282,3,221,3.62688516,90,-3.78994466,-3.78994466,-0.1935282775,0.02835257625,FALSE,5.9029304,TRUE,0.3935102,1,88
"mp-987","ZnCu",0,2,2,24.9112595184417,8.59590480260061,12.4556297592208,3,221,2.92055392,90,-2.77023017,-2.77023017,-0.0907550299999999,0,TRUE,6.86618734,FALSE,0,0,59
"mp-988","Si3N4",4.2503,14,2,145.496631090559,3.20207963985887,10.3926165064685,6,176,7.60454420000006,90,-8.18215478071429,-8.388440495,-1.29959281071429,0,TRUE,6.65520584,FALSE,0,0,49
"mp-990","HoAu2",0,3,2,61.5175898999909,15.0853537404967,20.505863299997,4,139,3.70345902391289,110.887271521477,-4.58556208,-4.58556208,-0.875504456666667,0,TRUE,4.641501,FALSE,0,0,146
"mp-991","WN",0,2,2,20.8313818646744,15.771021657714,10.4156909323372,6,187,2.87603442768858,90,-10.717814145,-10.898314145,-0.251001567500001,0.288264222499999,FALSE,9.76482919,FALSE,0.0001134,0,81
"mp-992","CaGa2",0,3,2,68.7222936474741,4.33784438164274,22.9074312158247,6,191,4.2388587,90,-3.17023779333333,-3.17023779333333,-0.482973818333333,0.0360449999999996,FALSE,3.12517367,FALSE,0,0,51
"mp-993","DySi2",0,3,2,57.3812831988761,6.32805190107008,19.1270943996254,6,191,4.09466396192813,90,-5.67634249,-5.62900915666667,-0.476534856666667,0.0871083713333336,FALSE,6.69190553,FALSE,0.0015172,0,80
"mp-994","YP",0,2,2,45.8468080000211,4.3419550389366,22.9234040000105,3,225,4.01736652980339,59.9999800368725,-7.56550261,-7.56550261,-1.6256158,0,TRUE,4.69679891,FALSE,7e-07,0,54
"mp-995","EuIr2",0,6,2,111.229405125202,16.0157259358441,18.5382341875337,3,227,5.3981490371155,60,-9.82641951833333,-9.82641951833333,-0.515129465000001,0,TRUE,6.31927705,TRUE,12.3436961,6,140
"mp-996","OsO2",0,6,2,64.3569258510722,11.4679064993745,10.726154308512,4,136,3.20912377,90,-7.92649735,-8.38449735,-1.34424906583333,0,TRUE,5.03302378,FALSE,0,0,84
"mp-998","Al2Cu",0,6,2,86.0752611520943,4.53390232591743,14.3458768586824,4,140,4.78547458100593,76.0280296187687,-4.028987475,-4.028987475,-0.165534698333333,0.0125315316666663,FALSE,8.01136732,FALSE,1e-07,0,42
"mp-1000","BaTe",1.593,2,2,89.0941578694079,4.93771582578921,44.547078934704,3,225,5.01327324134737,60.0000031898762,-4.323715075,-4.534715075,-2.00357465833333,0,TRUE,2.12107087,FALSE,0,0,108
"mp-1001","BaN2",0,6,2,112.761167636267,4.86965857559933,18.7935279393778,1,15,4.22152960817342,77.2045987018977,-6.709547045,-6.95021371166667,-0.752892115,0,TRUE,3.78572257,FALSE,0,0,63
"mp-1003","TbGe2",0,12,2,260.266573739379,7.7634997177864,21.6888811449483,7,65,15.854897260976,90,-5.1549456275,-5.1549456275,-0.5281383575,0.115311434166666,FALSE,5.54778397,FALSE,0.0138728,0,97
"mp-1004","Nb3Si",0,4,2,68.1107100452463,7.4798969236367,17.0276775113116,3,221,4.083869,90,-9.1655502075,-9.1478002075,-0.215491920000002,0.219570350416667,FALSE,6.29352151,FALSE,0.0045468,0,96
"mp-1005","FeP",0,8,2,90.5838621237906,6.36607636878332,11.3229827654738,7,62,3.049142,90,-7.540084815,-7.540084815,-0.598422956666667,0,TRUE,9.16314288,TRUE,1.9171113,4,41
"mp-1007","DySb",0,2,2,59.3077797997745,7.95890246887156,29.6538898998873,3,225,4.37732699268639,59.9999903872062,-5.49225085,-5.58825085,-1.22035681,0,TRUE,5.38941573,FALSE,1e-07,0,117
"mp-1008","NiHg",0,2,2,31.3260000734805,13.7441810001579,15.6630000367402,3,221,3.152354,90,-2.823377955,-2.823377955,0.2185305675,0.2185305675,FALSE,5.29040965,FALSE,4.56e-05,0,108
"mp-1009","SrSi6",0,14,2,271.529685178614,3.1327613587861,19.3949775127581,7,63,5.63236494552413,90,-4.97532373642857,-4.91446659357143,-0.0228377888095232,0.113595426428572,FALSE,6.84806747,FALSE,0.0004567,0,108
"mp-1010","MnB4",0,5,2,36.3634575658506,4.48348788246934,7.27269151317013,7,71,2.94809997335515,88.5361423523706,-7.44793043,-7.44793043,-0.272013954919539,0.0175701250000006,FALSE,7.6061499,TRUE,0.6392426,1,40
"mp-1014","ZrMn2",0,12,2,206.12553385189,6.48021716672368,17.1771278209909,6,194,5.25801079047095,90.0000277348065,-9.14230619416667,-9.14230619416667,-0.18506245612069,0.0023527791666673,FALSE,5.53882766,TRUE,19.86583,12,65
"mp-1015","ZrMn2",0,24,2,411.994406113924,6.48425417017798,17.1664335880801,6,194,5.2631632801117,90,-9.1411011725,-9.1411011725,-0.183857434454023,0.0035578008333345,FALSE,5.47858072,TRUE,39.7607977,24,65
"mp-1016","PuGe2",0,6,2,130.856856210313,9.87972149976049,21.8094760350521,4,141,8.51088430862728,152.539920827899,-8.17185298333333,-8.17185298333333,-0.333888303333333,0.0303504070833362,FALSE,8.69418346,TRUE,10.8826912,2,32
"mp-1017","Zr3O",0,8,2,143.588645021158,6.69984281982518,17.9485806276447,6,182,5.64998866000027,90.0000456083619,-9.0171033925,-9.1888533925,-1.5414057421875,0.0041734325,FALSE,4.95195531,FALSE,2.8e-06,0,88
"mp-1019","YNi2",0,6,2,90.266026510022,7.58994314299206,15.0443377516703,3,227,5.03515833242784,59.9999960951819,-6.42628054166667,-6.42628054166667,-0.417365717222221,0.0053937035294122,FALSE,5.99512864,FALSE,5.21e-05,0,67
"mp-1020","TaRh3",0,4,2,57.9508764968834,14.0309669441531,14.4877191242209,3,221,3.86978351,90,-9.081866655,-9.081866655,-0.594191345,0,TRUE,7.2948099,FALSE,2.4e-06,0,163
"mp-1022","K2S",2.3201,3,2,101.877077084921,1.79720207513612,33.9590256949737,3,225,5.24240429608491,59.9999975422685,-3.17410395,-3.34177061666667,-1.22268802970833,0,TRUE,-0.34024571,FALSE,0,0,35
"mp-1023","Ho2Co17",0,38,2,479.820391389611,9.21753786803113,12.6268524049897,6,194,8.2797111963121,90,-6.94500461657895,-6.94500461657895,-0.102571971578947,0,TRUE,4.52686002,TRUE,50.4351661,38,67
"mp-1024","CaGe2",0,6,2,144.192474505539,4.26921309676281,24.0320790842566,2,166,4.0492755082149,78.7961177887674,-4.23096420833333,-4.23096420833333,-0.480412345,0.001824318333333,FALSE,3.7771873,FALSE,0,0,52
"mp-1025","ThAu2",0,3,2,68.2673127513551,15.226168820081,22.7557709171184,6,191,4.7844953,90,-5.37308649333333,-5.37308649333333,-0.71921241,0,TRUE,6.39568873,FALSE,0.1665842,0,169
"mp-1027","HfRh3",0,4,2,59.9700756347411,13.4904853493761,14.9925189086853,3,221,3.9142167,90,-8.75891596,-8.75891596,-0.746387799999999,0,TRUE,6.77194134,FALSE,1.8e-06,0,162
"mp-1028","V3Te4",0,7,2,171.551946787614,6.41968927079389,24.5074209696592,1,12,3.99776476351,116.696141008178,-6.00752859,-6.24867144714286,-0.559394049523809,0.0144808188571436,FALSE,6.66379999,TRUE,7.0081111,3,202
"mp-1029","BaF2",6.6029,3,2,60.3269023624756,4.82590715636188,20.1089674541585,3,225,4.40225551649425,59.9999982624347,-5.76996174,-6.07796174,-4.163984115,0,TRUE,-1.97931744,FALSE,0,0,65
"mp-1030","SbPt7",0,8,2,127.520686361345,19.3678338009482,15.9400857951682,3,225,5.64978446461015,60.000005196562,-5.92217882375,-5.92217882375,-0.09381201375,0.0340464293749995,FALSE,8.1595589,FALSE,3e-07,0,519
"mp-1031","GdCd",0,2,2,53.139850412643,8.42649389791821,26.5699252063215,3,221,3.75958674,90,-7.844599125,-7.844599125,-0.345093125,0,TRUE,2.82267928,TRUE,7.962404,1,112
"mp-1032","Ta2B",0,6,2,81.7205071480941,15.1466053494834,13.6200845246823,4,140,4.76583122775565,105.110143541866,-10.6557049916667,-10.6557049916667,-0.52405598138889,0.0363305408333332,FALSE,6.41356212,FALSE,0,0,78
"mp-1033","BeNi",0,2,2,17.3136677711414,6.4935844573202,8.65683388557072,3,221,2.58699959,90,-5.228056025,-5.228056025,-0.4682812525,0,TRUE,7.20320726,FALSE,1.77e-05,0,32
"mp-1034","Th2Cu",0,6,2,153.464350288397,11.418119465737,25.5773917147328,4,140,5.74573532896913,76.3457296942901,-6.40454182166667,-6.40454182166667,-0.0955674316666671,0.0051136466666674,FALSE,7.60575669,FALSE,0.0001752,0,119
"mp-1036","NpRu2",0,6,2,101.19334570376,14.4121952018755,16.8655576172933,3,227,5.23064987977288,60,-10.3372828816667,-10.3372828816667,0.161578705416666,0.161578705416666,FALSE,11.08308891,FALSE,0.1806523,0,44
"mp-1037","PrPt5",0,6,2,111.29496337049,16.6557912219259,18.5491605617484,6,191,5.40388624,90,-6.55170814833333,-6.55170814833333,-0.695612755833332,0,TRUE,6.34594102,FALSE,0,0,371
"mp-1038","MgCu2",0,6,2,84.3733090213267,5.95924554772397,14.0622181702211,3,227,4.92312042691239,60.0000002019552,-3.40887339,-3.40887339,-0.14264226,0,TRUE,5.72966438,FALSE,1.3e-06,0,41
"mp-1039","MgTe",2.3612,4,2,135.718524466646,3.71716665655121,33.9296311166615,6,186,4.5902025,90,-3.247434155,-3.458434155,-1.08664118333333,0,TRUE,2.09590592,FALSE,0,0,64
"mp-1040","RbCd13",0,28,2,671.426143797722,7.6509971670469,23.9795051356329,3,226,9.8288888792535,60.0000002399074,-0.972575437142857,-0.972575437142857,-0.0455682262499999,0,TRUE,2.08206584,FALSE,0,0,37
"mp-1042","HfSi",0,8,2,135.073425646612,10.158228720722,16.8841782058265,7,62,3.76822566,90,-8.50928358,-8.47378358,-0.782530049999999,0,TRUE,7.44900616,FALSE,0,0,86
"mp-1043","HfV2",0,6,2,96.8288318076323,9.6163572569951,16.1381386346054,3,227,5.15435048665063,59.9999050114546,-9.34021846833333,-9.34021846833333,0.0347819216666659,0.0347819216666671,FALSE,5.11951583,FALSE,0.000602,0,95
"mp-1044","UIr3",0,4,2,65.6550258322803,20.6047869173793,16.4137564580701,3,221,4.03418669,90,-10.112259965,-10.112259965,-0.6605818275,0,TRUE,11.06811062,TRUE,0.4544191,1,246
"mp-1045","Nd2O3",3.708,40,2,689.048940416086,6.48710772826227,17.2262235104021,3,206,9.63734280380634,109.471212819274,-8.2453829175,-8.6575829175,-3.78231071775,0,TRUE,1.33797915,FALSE,0,0,76
"mp-1046","NbSn2",0,12,2,271.811632886255,8.07205862227532,22.6509694071879,7,70,5.69847959256873,81.8639481551457,-6.179258385,-6.179258385,-0.139108801666666,0,TRUE,7.72272406,FALSE,6.39e-05,0,91
"mp-1047","Ca3N2",0.7787,10,2,182.588329529929,2.69645491423948,18.2588329529929,2,167,6.57503857133414,56.0467197293956,-5.313312546,-5.457712546,-0.919754648,0.0136398254999994,FALSE,2.68115104,FALSE,0,0,47
"mp-1048","TiNi",0,4,2,53.4117191049505,6.62580085860304,13.3529297762376,1,11,2.89168663528481,90,-7.233669375,-7.233669375,-0.395855026666666,0,TRUE,7.00764848,FALSE,0,0,50
"mp-1049","SrAs",0.0181,12,2,373.049600445132,4.34108509579871,31.087466703761,6,189,8.30432385,90,-4.250005125,-4.250005125,-1.07569919583333,0,TRUE,2.72584486,FALSE,0,0,71
"mp-1050","Ni3S4",0,14,2,206.805423341871,4.88738431971806,14.7718159529908,3,227,6.63782161708042,59.9999833262619,-5.21252150571429,-5.49995007714286,-0.659063004642857,0,TRUE,6.91835082,FALSE,0.0001155,0,104
"mp-1051","ErNi3",0,12,2,165.291223344495,10.3477028572826,13.7742686120412,2,166,8.46057444596077,33.6089934785948,-5.91348834166667,-5.91348834166667,-0.436456129166667,0,TRUE,6.27022527,TRUE,2.2389622,12,124
"mp-1052","NaAu2",0,6,2,120.575427777939,11.4835466571832,20.0959046296564,3,227,5.54529496175777,59.9999941201665,-3.00634220166667,-3.00634220166667,-0.382912437183908,0,TRUE,3.65873503,FALSE,1e-07,0,90
"mp-1053","NdZn",0,2,2,49.4618064403496,7.03843431742838,24.7309032201748,3,221,3.67076564,90,-3.32868008,-3.32868008,-0.31473455875,0,TRUE,3.06474206,FALSE,0.0004723,0,90
"mp-1054","ErTl",0,4,2,104.3820354337,11.8243825268776,26.0955088584249,4,123,3.66071419,90,-3.772665025,-3.772665025,-0.307484046666667,0,TRUE,5.71339344,FALSE,0.0001536,0,149
"mp-1055","CdSe",0,2,2,47.4756857896663,6.69351092940879,23.7378428948331,3,225,4.06439038129066,60,-2.68374202,-2.91974202,-0.710341401171875,0.145271325,FALSE,2.22783558,FALSE,8.6e-06,0,82
"mp-1056","Tb2O3",3.9006,40,2,606.459286953872,8.01381268607855,15.1614821738468,3,206,9.23580021934193,109.471221979431,-8.39390312575,-8.80610312575,-3.984343459,0,TRUE,1.42030512,FALSE,0,0,81
"mp-1057","Al3Ni2",0,5,2,67.4350609096183,4.88376609478253,13.4870121819237,2,164,3.994196,90,-5.17262308,-5.17262308,-0.61322291,0,TRUE,7.84452714,FALSE,8e-07,0,54
"mp-1058","PdF2",0,6,2,84.8829655181298,5.65036217660395,14.1471609196883,4,136,3.42817199,90.0005096301007,-4.06775486666667,-4.37575486666667,-1.374808285,0.0271596377777747,FALSE,0.92815061,TRUE,4,2,55
"mp-1059","NdCd",0,2,2,56.8271683822503,7.49962289504479,28.4135841911251,3,221,3.84460747,90,-3.163966105,-3.163966105,-0.31844750875,0,TRUE,3.04609685,TRUE,0.4349677,1,108
"mp-1061","PrPt2",0,6,2,118.220060585476,14.9191577094037,19.7033434309126,3,227,5.50894900861671,59.9999880437652,-6.66363632666667,-6.66363632666667,-1.02257886166667,0,TRUE,6.42494304,FALSE,1.5e-06,0,137
"mp-1062","CeMg",0,2,2,56.5665881829444,4.8266565589289,28.2832940914722,3,221,3.838722,90,-3.67973078,-3.67973078,0.0869538225000003,0.105839761666667,FALSE,5.42725853,FALSE,0.0027652,0,70
"mp-1065","LaSb",0,2,2,70.6519010544853,6.12644797646491,35.3259505272427,3,225,4.64030202174607,60.0000056090263,-5.799725105,-5.895725105,-1.3632209325,0,TRUE,6.55253299,FALSE,9.6e-06,0,108
"mp-1066","YbN",0,2,2,29.9095122661942,10.3846010548179,14.9547561330971,3,225,3.48424038002547,60,-5.450023305,-5.630523305,-0.692471702500001,0.32124219375,FALSE,1.4311343,TRUE,0.9999424,2,77
"mp-1067","LiAl",0,4,2,63.3124103535948,1.77942050441452,15.8281025883987,3,227,4.47100638838056,119.969994222448,-3.004888065,-3.004888065,-0.177638716666666,0,TRUE,4.71681619,FALSE,1e-06,0,16
"mp-1068","CuS2",0,12,2,193.021561873414,4.39351922778992,16.0851301561178,3,205,5.77919803004097,90,-4.22062701833333,-4.55596035166667,-0.43192488375,0.0007493549999999,FALSE,6.24700213,FALSE,1.7e-06,0,45
"mp-1069","HfSi2",0,6,2,97.0772619152141,8.02790993935839,16.1795436525357,7,63,3.64860584,104.031816774741,-7.50141135666667,-7.45407802333333,-0.518136326666666,0.0035503733333319,FALSE,8.34564161,FALSE,1e-06,0,86
"mp-1070","CdSe",0.5724,4,2,115.974782376655,5.48013999599065,28.9936955941637,6,186,4.34608591,90,-2.827861955,-3.063861955,-0.854461336171875,0.0011513899999995,FALSE,0.52978313,FALSE,0,0,82
"mp-1072","Nb5Ga13",0,18,2,283.525544457862,8.02920358168093,15.7514191365479,7,65,3.75750973352838,90.0000857791886,-5.23522694388889,-5.23522694388889,-0.242350638749999,0.0704603060317472,FALSE,5.11518009,FALSE,1e-07,0,164
"mp-1073","CaCd",0,2,2,55.2741350113933,4.5810566130899,27.6370675056966,3,221,3.80926031,90,-1.818346545,-1.818346545,-0.354101725,0,TRUE,2.36783474,FALSE,8.2e-06,0,68
"mp-1074","RbSi",1.3488,64,2,2247.70776688181,2.68447268556352,35.1204338575282,3,218,13.09925557,90,-3.244039375625,-3.208539375625,-0.005613324375,0,TRUE,1.79153401,FALSE,0,0,51
"mp-1075","SmNi5",0,6,2,80.9612986628596,9.103016928877,13.4935497771433,6,191,4.88380979000042,90,-5.90175866166667,-5.90175866166667,-0.2985470725,1.01088668541667,FALSE,6.31236501,TRUE,1.904127,6,174
"mp-1076","KB6",0,7,2,74.7456138898212,2.30965768688712,10.677944841403,3,221,4.21238998,90,-5.91017098714286,-5.91017098714286,-0.0263496197142854,0,TRUE,2.94515987,FALSE,0,0,44
"mp-1077","B2Ru",0,6,2,53.876750875671,7.56299724270445,8.97945847927851,7,59,2.86717823,90,-7.830300285,-7.830300285,-0.285904924444444,0,TRUE,8.39468822,FALSE,2e-07,0,49
"mp-1078","CaCd2",0,12,2,300.667123964333,5.8520105948733,25.0555936636944,6,194,6.03798611,90,-1.60199979166667,-1.60199979166667,-0.318206658333333,0.0123136216666666,FALSE,2.63217058,FALSE,4e-07,0,68
"mp-1081","V3S4",0,7,2,109.406780904299,4.26620534310399,15.6295401291855,1,12,3.26585437070496,114.444899795882,-7.24966107285714,-7.53708964428571,-1.28030140464286,0.0203379521428503,FALSE,6.74420759,TRUE,2.0155776,1,94
"mp-1082","VIr3",0,4,2,55.6037054095168,18.7423096442921,13.9009263523792,3,221,3.81681618,90,-9.395904995,-9.395904995,-0.496102842500001,0.0224885099999987,FALSE,9.37229967,FALSE,1e-07,0,177
"mp-1083","NpB2",0,3,2,34.7321999822232,12.3646626099708,11.5773999940744,6,191,3.15970347,90,-9.17682205333333,-9.17682205333333,-0.407967645694445,0,TRUE,13.44838168,TRUE,2.8991862,1,5
"mp-1084","ZrB12",0,13,2,101.080833684737,3.62982829310667,7.7754487449798,3,225,5.22871027242404,60.0000088250114,-7.03508700076923,-7.03508700076923,-0.211979163846153,0.0158726867948724,FALSE,7.01851369,FALSE,0,0,40
"mp-1085","UOs2",0,6,2,107.043247220507,19.1889731296772,17.8405412034178,3,227,5.32962183009925,59.9997206647792,-11.3383928416667,-11.3383928416667,-0.0896778850000027,0.0015045899999979,FALSE,10.27731955,TRUE,4.1323572,6,168
"mp-1086","TaC",0,2,2,22.2956344436769,14.3712107020364,11.1478172218384,3,225,3.1592088134187,60.0000010605284,-11.11855111,-11.11855111,-0.57532954875,0,TRUE,7.83089568,FALSE,1.2e-06,0,79
"mp-1087","SrS",2.497,2,2,55.3073140608462,3.59340571063306,27.6536570304231,3,225,4.27660617979051,59.9999919551179,-5.0565377,-5.3080377,-2.39506603989583,0,TRUE,1.8660166,FALSE,0,0,54
"mp-1088","YbGa4",0,5,2,100.992604321595,7.43074947406027,20.1985208643191,4,139,6.17085831869538,138.783989368026,-3.139647662,-3.139647662,-0.409249188,0,TRUE,3.60847083,FALSE,0.000385,0,163
"mp-1089","TiIr3",0,4,2,57.4088929963827,18.0640399538838,14.3522232490957,3,221,3.8576817,90,-9.335620635,-9.335620635,-0.732921995833333,0,TRUE,9.16744356,FALSE,0.0001831,0,176
"mp-1090","FeSe",0,4,2,63.0992598807995,7.0951377019599,15.7748149701999,6,194,3.80424851069853,90,-6.0641206375,-6.3001206375,-0.317154293671875,0.190764467499999,FALSE,6.074577,TRUE,4.3684786,2,60
"mp-1091","SmAu6",0,56,2,1082.83476678861,16.3430493200469,19.3363351212251,4,138,9.84325018,90,-3.90215849214286,-3.90215849214286,-0.421890187142858,0,TRUE,4.88497344,FALSE,1e-07,0,457
"mp-1092","HoHg",0,2,2,49.6800565510513,12.2173929164597,24.8400282755257,3,221,3.6761568,90,-2.929076865,-2.929076865,-0.4860322475,0,TRUE,3.77695749,FALSE,2.9e-06,0,147