"material_id","formula_pretty","band_gap","nsites","nelements","volume","density","density_atomic","crystal_symmetry","symmetry_number","sides_abc","angles_abc","uncorrected_energy_per_atom","energy_per_atom","formation_energy_per_atom","energy_above_hull","is_stable","efermi","is_magnetic","total_magnetization","num_magnetic_sites","atomic_number"
"mp-7444","RbSb",0.5423,16,2,695.731139358099,3.95681421306577,43.4831962098812,7,19,7.26320687,90,-2.973893544375,-3.069893544375,-0.515125888125,1.00587500000415e-05,FALSE,2.31272586,FALSE,0,0,88
"mp-7446","Rb2S3",1.3433,10,2,306.629239422503,2.89327135285419,30.6629239422502,7,36,6.48285753781002,90,-3.659474149,-3.961274149,-1.087190599875,0,TRUE,1.57122471,FALSE,0,0,69
"mp-7447","Rb2Se3",0.6812,10,2,344.375349990818,3.93288158276703,34.4375349990818,7,36,6.76283582480393,89.9984868909489,-3.286743676,-3.569943676,-1.08018316040625,0,TRUE,0.94739657,FALSE,0,0,105
"mp-7449","Cs2Se3",0.7396,10,2,391.732195492976,4.26177829541882,39.1732195492975,7,36,7.07241643238352,90,-3.27600879,-3.55920879,-1.10350095457866,0,TRUE,1.26110201,FALSE,0,0,123
"mp-7456","SnF2",3.2629,12,2,213.301612788412,4.87980884209159,17.7751343990344,7,19,4.90167501,90,-4.87224685583333,-5.18024685583333,-2.5694035925,0.0002549233333333,FALSE,1.70244707,FALSE,0,0,59
"mp-7457","SnF2",3.3819,12,2,214.319700324888,4.85662817995466,17.859975027074,4,92,5.04075254,90,-4.87250177916667,-5.18050177916667,-2.56965851583333,0,TRUE,1.76901893,FALSE,0,0,59
"mp-7459","Te2Mo",0,12,2,329.448133221291,7.07949603046336,27.4540111017743,1,11,3.49421554,92.1164643251181,-5.9713395825,-6.25267291583333,-0.541918950277778,0.0147859608333336,FALSE,5.99817717,FALSE,1e-07,0,94
"mp-7461","Hg2SO4",1.9921,14,3,236.175321420633,6.99218494050177,16.8696658157595,1,13,4.43825567,92.4112649218755,-4.45969325142857,-4.85226468,-1.34789818830357,0,TRUE,-0.19330883,FALSE,0,0,120
"mp-7462","Hg2SeO4",1.4363,14,3,275.987341947156,6.54784915881374,19.713381567654,1,13,4.84605,87.7418716532938,-3.93780855928571,-4.33037998785714,-0.917518980334822,0.0159925258730142,FALSE,-0.51026089,FALSE,2.65e-05,0,138
"mp-7463","Cu3P",0,24,2,294.029520289146,7.50934779726564,12.2512300120477,6,185,6.89606532778393,90,-4.44775234666667,-4.44775234666667,-0.0200217174999999,0.0220456023958348,FALSE,8.41579258,FALSE,0,0,73
"mp-7466","CaCu2O3",0,12,3,152.371829998449,4.68978028279425,12.6976524998708,7,59,3.65127,90,-5.55447452166667,-5.89797452166667,-1.72396129604167,0.0313149355555557,FALSE,3.72321993,FALSE,0.000494,0,65
"mp-7467","RbCuO2",0.9136,8,3,155.279316302838,3.87145565814609,19.4099145378547,7,63,4.82779489177238,90,-4.758103205,-5.101603205,-1.35832366375,0,TRUE,0.35598041,FALSE,0,0,74
"mp-7469","NaCuO",1.2722,12,3,177.463527257166,3.83771599542595,14.7886272714305,4,139,4.65272897480819,82.8575644113002,-4.46002207666667,-4.68902207666667,-1.23288185176724,0,TRUE,2.01292192,FALSE,0,0,48
"mp-7470","RbCuO",1.1566,12,3,261.423412561598,4.19259870292016,21.7852843801332,4,139,5.82166557849909,80.8777151472113,-4.30246607,-4.53146607,-1.18932291875,0,TRUE,1.55548234,FALSE,0,0,74
"mp-7471","Li3AuO3",1.7026,28,3,293.217200503151,6.02080605219084,10.4720428751125,4,136,9.0850405,90,-4.78308375821429,-5.07751232964286,-1.67169565339286,0,TRUE,0.65238413,FALSE,0,0,101
"mp-7472","RbAuO2",1.4611,8,3,173.272854011549,6.02666313702595,21.6591067514436,7,63,4.66173970845539,90,-4.33031568375,-4.67381568375,-1.13686731,0,TRUE,0.10664417,FALSE,0,0,124
"mp-7473","LiCu2Si",0,4,3,46.4334428231921,5.79763390997432,11.608360705798,3,225,4.03442852657312,59.9999944137466,-4.103036135,-4.085286135,-0.202122575833333,0,TRUE,8.38164014,FALSE,2e-07,0,46
"mp-7474","Cu2As",0,6,2,83.7212061399106,8.01353659964995,13.9535343566518,4,129,3.77356671,90,-4.26335307,-4.26335307,0.0224908449999995,0.0224908449999983,FALSE,6.87139471,FALSE,0,0,62
"mp-7475","La2S3",1.0358,20,2,504.187952611418,4.927142517339,25.2093976305709,7,62,4.15834987,90,-6.64883766,-6.95063766,-2.494364897875,0,TRUE,6.01959917,FALSE,2.42e-05,0,89
"mp-7476","RbDyO2",3.602,4,3,68.1656620163717,6.82008305782345,17.0414155040929,2,166,6.81234256143042,29.572695514934,-6.56953462,-6.91303462,-3.04286003625,0,TRUE,1.4038584,FALSE,0,0,111
"mp-7477","RbErO2",3.6429,4,3,66.3139756046356,7.12968839147799,16.5784939011589,2,166,6.79147170575018,29.2832022578149,-6.58705786,-6.93055786,-3.07015028375,0,TRUE,1.3756589,FALSE,0,0,113
"mp-7478","RbTmO2",3.6636,4,3,65.4358426479709,7.26787819130547,16.3589606619927,2,166,6.77805265852401,29.1673371311197,-6.58363702,-6.92713702,-3.08970029041667,0,TRUE,1.40979858,FALSE,0,0,114
"mp-7479","RbYbO2",0,4,3,70.2583983631741,6.8660483250923,17.5645995907935,2,166,6.72379046241783,30.7003385746204,-5.010787235,-5.354287235,-2.25090729125,0.181082135,FALSE,0.348568,TRUE,1.000825,2,115
"mp-7480","RbLuO2",3.6931,4,3,63.940856872277,7.59447778681583,15.9852142180692,2,166,6.76151103645704,28.9218897010665,-6.6111086225,-6.9546086225,-3.10589311875,0,TRUE,1.29718762,FALSE,0,0,116
"mp-7482","RbHgF3",0.6454,5,3,94.147885439195,6.05061836172001,18.829577087839,3,221,4.54921913,90,-3.358918128,-3.636118128,-2.23238786,0,TRUE,-1.06282461,FALSE,0,0,135
"mp-7483","KHgF3",0.6082,20,3,371.804154316506,5.30015119397954,18.5902077158253,3,221,6.40393385,90,-3.35787531,-3.63507531,-2.2053720671,0,TRUE,-1.16605198,FALSE,0,0,117
"mp-7486","BaNiS2",0,8,3,175.364160466392,4.92677524578239,21.920520058299,4,129,4.420913,90,-5.1796154975,-5.4311154975,-1.4381126590625,0.0395671529166659,FALSE,4.32964145,FALSE,0.0003835,0,100
"mp-7487","BaO",2.7678,4,2,89.4988147384384,5.68956087039194,22.3747036846096,4,129,4.759217,90,-5.7819460375,-6.1254460375,-2.692614211875,0.1316646425,FALSE,1.77757463,FALSE,1.54e-05,0,64
"mp-7489","CsUF6",4.1956,8,3,151.430795175963,5.31752172629957,18.9288493969954,2,148,5.36366775905351,96.1533295365413,-6.4113564225,-6.7578564225,-3.80089564911638,0,TRUE,0.53118084,TRUE,1,1,192
"mp-7492","LaBO3",4.0022,10,3,127.94431487087,5.13212226594487,12.794431487087,1,11,4.17942405811782,90,-8.393630275,-8.805830275,-3.51473727308333,0.0071716530000021,FALSE,4.35804553,FALSE,0,0,78
"mp-7494","K2Ag4S3",0.1283,18,3,412.664805135432,4.8759258979306,22.925822507524,1,12,9.05622677577182,72.2692264650741,-3.36412084666667,-3.53178751333333,-0.647301790226852,0,TRUE,2.198126,FALSE,0,0,192
"mp-7496","ThZn2",0,3,2,64.3426358853534,9.36450076829556,21.4475452951178,6,191,4.51927872,90,-3.59552828666667,-3.59552828666667,-0.28441313,0,TRUE,5.01942322,FALSE,2.3e-06,0,120
"mp-7497","ThSi2",0,3,2,61.172659513529,7.82346896937217,20.3908865045097,6,191,4.10248946,90,-6.70810896,-6.66077562666667,-0.572610856666667,0,TRUE,8.60954917,FALSE,3e-07,0,104
"mp-7498","Ti5Te4",0,9,2,195.407599102113,6.37111485335214,21.7119554557903,4,87,3.75797452070725,86.3545908209605,-6.47106469777778,-6.65862025333333,-0.875210958148148,0,TRUE,7.56838374,FALSE,1e-07,0,244
"mp-7499","Tl2Sn2S5",1.4057,18,3,481.68178773596,5.56070025300685,26.7600993186644,1,15,6.84374613132047,74.8500063439382,-4.10473779722222,-4.38418224166667,-0.670106759699074,0.0004529190277766,FALSE,3.59838426,FALSE,0,0,195
"mp-7500","Na4SiO4",3.2221,18,3,225.91571164098,2.70551545786726,12.5508728689433,5,2,5.55009768646271,80.9067593926199,-5.47446802722222,-5.77980136055556,-2.39067091068966,0,TRUE,1.17371432,FALSE,0,0,71
"mp-7502","K2Sn2O3",1.2309,7,3,148.454527513148,4.06721567006752,21.2077896447355,2,166,5.87213430079013,61.6437559629082,-5.02920641428571,-5.32363498571429,-1.74077673746429,0.0082225471428571,FALSE,3.10240936,FALSE,0,0,85
"mp-7505","K2P2Pd",1.0789,10,3,264.385017131127,3.097220597194,26.4385017131127,7,63,5.89100634,114.127385464313,-4.171035033,-4.171035033,-0.525578089533333,0,TRUE,2.40998704,FALSE,0,0,80
"mp-7506","Cr5Si3",0,16,2,184.300948695513,6.20310411547112,11.5188092934696,4,140,4.54810044792006,83.5029035507312,-8.374925065625,-8.348300065625,-0.280651135625,0.0428536432499999,FALSE,8.99749921,FALSE,0.0025102,0,124
"mp-7507","Sr3Li2",0,20,2,843.553362931942,2.17907211357342,42.1776681465971,4,136,8.78108905000013,89.9999999999993,-1.775047855,-1.775047855,0.0022173636666664,0.0038864521969694,FALSE,1.21378433,FALSE,4.02e-05,0,79
"mp-7522","Th2SbN2",0,5,3,114.295121421219,8.91832561441608,22.8590242842439,4,139,4.05250731442162,105.617855720472,-8.65552726,-8.83832726,-1.712385742,0,TRUE,6.58469051,FALSE,8.6e-06,0,148
"mp-7523","Th2TeN2",1.6183,5,3,111.05716210779,9.26566677549217,22.2114324215581,4,139,4.10575568032879,106.567507598638,-8.749397782,-8.978197782,-2.04939533333333,0,TRUE,6.32919292,FALSE,0,0,149
"mp-7524","NbPSe",0,6,3,106.543277094158,6.32276365533643,17.7572128490264,7,71,6.97321846995618,151.107082412997,-7.03475151166667,-7.192084845,-0.855245170225694,0.0607415562500017,FALSE,6.91665632,FALSE,0.0007878,0,90
"mp-7526","SnP",0,2,2,44.7694601257237,5.55190376963785,22.3847300628618,4,107,3.84068490878424,118.132704358982,-4.708031645,-4.708031645,0.0034055358333331,0.0406194620833328,FALSE,6.84787211,FALSE,0,0,65
"mp-7531","Ca4Al6O13",3.9418,23,3,341.207706299099,2.58026676939928,14.8351176651782,3,217,7.62453871577601,109.471220634491,-7.17135145695652,-7.55965580478261,-3.43779459842391,0.0134816210869557,FALSE,0.98036617,FALSE,0,0,125
"mp-7534","K2Cd2O3",0.6513,14,3,257.006058124114,4.53590171132413,18.3575755802939,1,14,6.44818589492801,90,-3.82904070357143,-4.123469275,-1.42252019675,0,TRUE,0.27050279,FALSE,0,0,83
"mp-7535","Li5AlO4",4.795,20,3,181.736215370756,2.29677306497769,9.08681076853782,7,59,4.57360415,90,-5.526312556,-5.801112556,-2.49341805516667,0.0032938423750001,FALSE,0.29693751,FALSE,2.9e-06,0,49
"mp-7538","LaErO3",4.4376,20,3,304.079662733353,7.73614314327978,15.2039831366676,7,62,5.877087,90,-8.395938028,-8.808138028,-3.93937961825,0.0270023546249991,FALSE,3.98188096,FALSE,1.64e-05,0,141
"mp-7540","Cu3P",0,8,2,99.5631299337808,7.39219405142875,12.4453912417226,2,164,4.02242659,90,-4.40982208,-4.40982208,0.017908549166667,0.0599758690625016,FALSE,8.32472297,FALSE,0,0,73
"mp-7541","SnP3",0,8,2,170.261144810965,4.12803541886164,21.2826431013706,2,166,5.58462083961953,82.6928489089164,-5.06773289875,-5.06773289875,-0.0053630550000001,0.0132439081250002,FALSE,6.91024911,FALSE,0,0,80
"mp-7542","GeP3",0,8,2,146.503248731312,3.75310425810069,18.312906091414,2,166,5.31065421883723,82.7960983458472,-5.18651255375,-5.18651255375,0.0292212899999997,0.0292212899999997,FALSE,6.98981376,FALSE,0,0,62
"mp-7543","LiVS2",0,4,3,63.480847001837,3.1916165651928,15.8702117504592,2,164,3.48119138732934,90,-5.901156175,-6.152656175,-1.33622400739583,0.0251027064285818,FALSE,5.20281387,TRUE,2.0007127,1,42
"mp-7544","ZrSiRu",0,9,3,142.931971328014,7.68090090329673,15.8813301475571,6,189,6.68679911,90,-8.68959923666667,-8.66593257,-0.91679217,0,TRUE,7.14693476,FALSE,0.0020986,0,98
"mp-7547","BaSe2",0.6166,6,2,204.266399599327,4.80029195950115,34.0443999332212,1,15,4.98782735821001,79.4868944347789,-4.36387365,-4.67854031666667,-1.7082743515625,0,TRUE,1.72622645,FALSE,0,0,90
"mp-7548","BaSe3",0.926,8,2,234.399223651877,5.30194027790851,29.2999029564847,4,113,4.29675126,90,-4.13895508125,-4.49295508125,-1.39127773800781,0,TRUE,2.62290274,FALSE,0,0,124
"mp-7550","CeNbO4",0,12,3,163.128764951887,6.04691981204197,13.5940637459906,1,15,5.18552134495734,112.133550570441,-8.982237685,-9.440237685,-3.47004617833333,0.0029109774999991,FALSE,6.49136468,TRUE,1.9994753,2,123
"mp-7554","LiMgSnAu",0,4,4,75.6011605930248,7.61996871993635,18.9002901482562,3,216,4.74621950926335,60,-3.1064421125,-3.1064421125,-0.408277919583333,0.0582987335416662,FALSE,6.27562307,FALSE,0.0008514,0,144
"mp-7555","LiMgSnPd",0,4,4,69.3602673961789,6.13784201994144,17.3400668490447,3,216,4.61185083606159,60,-3.76382489,-3.76382489,-0.589160744583333,0,TRUE,6.48285224,FALSE,0.0032832,0,111
"mp-7557","Nb5SiSn2",0,16,3,292.11500012892,8.2998519230035,18.2571875080575,4,140,5.15014288461273,83.9917819545695,-8.325112008125,-8.325112008125,-0.331238640625,0,TRUE,7.50288486,FALSE,5e-07,0,228
"mp-7558","TaGe2",0,9,2,144.493656790542,11.247154056168,16.0548507545046,6,180,4.97481538,90,-7.25658710444444,-7.25658710444444,-0.221975991111111,0,TRUE,8.05169098,FALSE,0,0,105
"mp-7559","YNi4B",0,12,3,145.67928511878,7.62544186260579,12.139940426565,6,191,4.94546896,90,-6.52712871,-6.52712871,-0.482727109305555,0,TRUE,6.73267423,FALSE,1e-07,0,128
"mp-7560","LuBO3",5.3023,10,3,109.983677878606,7.05912950773958,10.9983677878606,2,167,6.03245183333534,47.7101085567531,-8.365943964,-8.778143964,-3.57006227908333,0,TRUE,1.45666768,FALSE,0,0,92
"mp-7561","SrPd3O4",0,16,3,200.16717997603,7.81257597254936,12.5104487485019,3,223,5.84966448,90,-5.7633776525,-6.1068776525,-1.47989093645833,0,TRUE,3.40922497,FALSE,2.6e-06,0,154
"mp-7562","TaTl3S4",2.5325,8,3,233.265035223967,6.56596958734893,29.1581294029959,3,217,6.71671912627191,109.471220136146,-5.12066427625,-5.37216427625,-0.9357259590625,0,TRUE,2.06561965,FALSE,0,0,283
"mp-7564","Nb3Te4",0,14,2,373.600344192001,7.01478561539211,26.6857388708572,6,176,10.8389084454969,90,-6.58714267571429,-6.82828553285714,-0.702980005238095,0,TRUE,6.09661013,FALSE,0,0,238
"mp-7565","SbRu",0,8,2,147.859268647988,10.0100027166072,18.4824085809985,7,62,3.78917608,90,-6.843035645,-6.939035645,-0.237333754999999,0.0490192425000008,FALSE,8.719565,FALSE,0.0002542,0,95
"mp-7566","InPO4",2.3482,12,3,145.828710160579,4.77770709175841,12.1523925133816,7,63,4.8199077783583,90,-6.6745226,-7.1325226,-2.47389908638889,0,TRUE,3.2458172,FALSE,0,0,88
"mp-7567","UGeO4",0,12,3,147.575203290281,8.43161131315416,12.2979336075234,4,88,6.66520848299166,134.646665002073,-8.3657810425,-8.8237810425,-2.8735822575,0.0848874174074101,FALSE,8.23833056,TRUE,4.0000002,2,148
"mp-7568","ThSb2",0,6,2,178.81278157992,8.83250884069,29.80213026332,4,129,4.40751749,90,-5.99466521166667,-6.12266521166667,-0.898711635,0,TRUE,7.43624423,FALSE,1e-07,0,141
"mp-7569","KAsF6",4.8371,8,3,110.814444376162,3.41670298263919,13.8518055470202,2,166,4.85748140521857,98.1018586371623,-4.55389135375,-4.90039135375,-2.745592459125,0,TRUE,-3.03582182,FALSE,0,0,97
"mp-7570","RuF3",0,8,2,97.559571025033,5.38078330712973,12.1949463781291,2,167,5.38656339850149,54.7831106025335,-5.29612781,-5.64262781,-1.890417949375,0,TRUE,1.52956172,TRUE,1.9989958,2,62
"mp-7571","KNbF6",5.0254,16,3,266.688582783372,3.06338177773099,16.6680364239608,4,132,5.26510201,90,-5.907313729375,-6.253813729375,-3.418741505375,0,TRUE,-4.32123384,FALSE,0,0,105
"mp-7572","MgSO4",5.4889,12,3,131.501094716574,3.03990020134319,10.9584245597145,7,63,4.71387116723033,90,-6.20412680416667,-6.66212680416667,-2.4082126771875,0,TRUE,1.80360952,FALSE,0,0,52
"mp-7573","Co(BW)2",0,5,3,50.9295598991657,14.61453925375,10.1859119798331,7,71,3.17056605012251,60.7782604205422,-9.735748148,-9.735748148,-0.459075788666668,0,TRUE,8.00231673,FALSE,1.31e-05,0,106
"mp-7574","AlBMo",0,6,3,69.334085158804,6.40574125445699,11.5556808598007,7,63,3.0964982,102.92448567504,-7.540937285,-7.540937285,-0.450731381388888,0,TRUE,9.65515793,FALSE,0,0,60
"mp-7575","LiZnN",0.5187,3,3,28.7828286911671,4.98209107768003,9.59427623038902,3,216,3.43993014418503,59.9999868557572,-4.10058187333333,-4.22091520666667,-0.385861406111111,0,TRUE,3.19062686,FALSE,0,0,40
"mp-7576","CrSi",0,8,2,97.3059135804223,5.46641495558969,12.1632391975528,3,198,4.599526,90,-7.8300293275,-7.7945293275,-0.2553465775,0.0687595590000009,FALSE,9.15775752,FALSE,0.0005673,0,38
"mp-7577","CoSi",0,8,2,84.2072564175115,6.86391879842796,10.5259070521889,3,198,4.3831181,90,-6.88271253125,-6.84721253125,-0.580394618750001,0,TRUE,9.63997474,FALSE,0,0,41
"mp-7580","Hg3(SF)2",1.8372,14,3,274.753031971156,8.50835484869105,19.6252165693683,3,199,7.0934054516149,109.471217095183,-2.60858493214286,-2.88429921785714,-1.02617082303571,0,TRUE,0.1461108,FALSE,0,0,185
"mp-7581","MoSe2",1.4467,3,2,65.4867224884212,6.43709795556817,21.8289074961404,2,160,7.1225771690606,26.9559216661185,-6.61872797333333,-6.93339464,-0.987570284895832,0.0001497900000035,FALSE,3.65283667,FALSE,0,0,76
"mp-7582","GeS2",2.5975,6,2,144.899332744353,3.13475464430989,24.1498887907254,4,122,5.6833843457304,118.15271947322,-4.60971008166667,-4.945043415,-0.646400885416667,0.0175934431250004,FALSE,1.88800225,FALSE,0,0,48
"mp-7583","SiS2",3.2415,6,2,134.034499465937,2.28489591718836,22.3390832443228,4,122,5.55922901129022,118.351173767457,-5.190326005,-5.52565933833333,-0.959586750416666,0.0517187133333338,FALSE,2.51527352,FALSE,0,0,30
"mp-7586","Ni3C",0,8,2,76.6509395312687,8.14947055918453,9.58136744140859,2,167,5.00762521816676,54.1423046926786,-6.5833553275,-6.5833553275,0.0589135556250006,0.0589135556250006,FALSE,8.16174219,FALSE,6e-07,0,62
"mp-7588","CdGeO3",1.301,80,3,996.489942164786,6.2136069363499,12.4561242770598,4,88,10.8988576220932,109.124370342702,-5.514622038875,-5.926822038875,-1.849625289125,0.016826052750007,FALSE,1.5774209,FALSE,0.0100401,0,96
"mp-7589","Mg2NF",2.1176,8,3,87.6657528796259,3.09185885791184,10.9582191099532,4,141,4.17460387715223,110.969649024738,-5.151065525,-5.356815525,-1.994682026875,0.006444851145833,FALSE,4.07916228,FALSE,0,0,28
"mp-7590","GeP",0,2,2,35.6965642634857,4.81992323878606,17.8482821317428,4,107,3.53357287075818,117.731255666325,-4.951606425,-4.951606425,0.0665587558333342,0.0665587558333342,FALSE,6.3409358,FALSE,0,0,47
"mp-7591","GeAs",0,2,2,42.2148029061872,5.80440472680945,21.1074014530936,4,107,4.01788737216699,124.635043442097,-4.57868537,-4.57868537,0.0623877600000009,0.105443806666667,FALSE,4.91873919,FALSE,0.0014869,0,65
"mp-7592","AgF",0,2,2,29.8060616169828,7.0679230811362,14.9030308084914,3,225,3.48021800743316,60.0000160428605,-3.375058845,-3.606058845,-1.23404135958333,0,TRUE,-0.07892905,FALSE,5e-07,0,56
"mp-7593","RbLiF2",6.5252,16,3,247.057163474505,3.50596762118511,15.4410727171566,1,15,6.24092878254375,87.1477796483454,-4.461453570625,-4.692453570625,-3.01434985208333,0.0058916843749994,FALSE,-2.85090838,FALSE,0,0,49
"mp-7594","CsLiF2",6.2744,16,3,280.883921473491,4.20551915665925,17.5552450920932,1,15,5.98429726213433,88.2194655407081,-4.43514712125,-4.66614712125,-3.00932632781609,0,TRUE,-2.04126101,FALSE,0,0,67
"mp-7595","GeF2",4.0597,12,2,189.389638040957,3.88018565601421,15.7824698367464,7,19,4.69160056,90,-4.89886198333333,-5.20686198333333,-2.39153338666667,0,TRUE,-1.13647331,FALSE,0,0,41
"mp-7596","NbNO",1.5556,12,3,132.11468427885,6.17950914167579,11.0095570232375,1,14,5.02537216885975,90,-9.42247973833333,-9.77181307166666,-1.97698351291667,0,TRUE,4.02409913,FALSE,0,0,56
"mp-7597","NbSe2",0,3,2,71.1566900534343,5.85337798330818,23.7188966844781,2,160,7.00676599040213,28.9224522678952,-6.53809787,-6.85276453666667,-1.15505520489583,0.0009491108333339,FALSE,2.97653006,TRUE,0.9087386,1,75
"mp-7598","NbAs2",0,6,2,110.000534303269,7.32896732809346,18.3334223838782,1,12,3.42486657572748,78.9055348581843,-6.99960699333333,-6.99960699333333,-0.526426376666667,0,TRUE,5.90971688,FALSE,0,0,74
"mp-7599","BeO",7.0846,8,2,57.0332236568558,2.91287823941734,7.12915295710698,4,136,2.68522923,90,-7.09130510875,-7.43480510875,-3.091754320625,0.0117376287499997,FALSE,2.19589382,FALSE,0,0,12
"mp-7600","Th(FeSi)2",0,5,3,77.6318130664039,8.55381300007267,15.5263626132808,4,139,4.03378817378088,111.274642192057,-7.74949158,-7.72109158,-0.680184233999999,0,TRUE,8.13214865,FALSE,5e-07,0,130
"mp-7601","NbGaO4",3.4012,12,3,152.048924164326,4.95002455168794,12.6707436803605,1,12,3.82229066,107.093953133357,-7.75316694583333,-8.21116694583333,-2.72514096125,0,TRUE,0.66961603,FALSE,0,0,96
"mp-7603","Li2TiF6",4.1597,18,3,187.132010912381,3.11889098717409,10.3962228284656,4,136,4.60075757,90,-5.79942078388889,-6.10742078388889,-3.5316195,0,TRUE,-2.43004376,FALSE,0,0,70
"mp-7604","Mg3NF3",3.5818,7,3,74.1488984920662,3.22296966772488,10.5926997845809,3,221,4.20115045,90,-5.23724147285714,-5.48681290142857,-2.79084547607143,0,TRUE,2.03579424,FALSE,0,0,49