"material_id","formula_pretty","band_gap","nsites","nelements","volume","density","density_atomic","crystal_symmetry","symmetry_number","sides_abc","angles_abc","uncorrected_energy_per_atom","energy_per_atom","formation_energy_per_atom","energy_above_hull","is_stable","efermi","is_magnetic","total_magnetization","num_magnetic_sites","atomic_number"
"mp-7090","NaMgSb",1.0359,6,3,164.599473657198,3.41097140285069,27.433245609533,4,129,4.64915576,90,-2.85963465,-2.92363465,-0.573032455517242,0,TRUE,3.3123485,FALSE,0,0,74
"mp-7092","TiSi",0,8,2,118.099580477399,4.27172028710374,14.7624475596749,7,62,3.63174164,90,-7.4292482675,-7.3937482675,-0.733343244166668,0,TRUE,8.1921141,FALSE,0,0,36
"mp-7093","HoAgGe",0,9,3,192.090964054233,8.95847694438979,21.3434404504704,6,189,7.34307122593074,90,-4.42569816888889,-4.42569816888889,-0.413033926111111,0.161637917222226,FALSE,4.76512691,FALSE,0.0007819,0,146
"mp-7094","ReAgO4",2.0985,12,3,166.317096707888,7.15012328685806,13.8597580589907,4,88,5.37651032136412,112.909211522659,-7.09683552333333,-7.55483552333333,-1.71086251777778,0,TRUE,0.1908584,FALSE,0,0,146
"mp-7095","CeCoSi2",0,8,3,132.645044497215,6.3900329784528,16.5806305621518,7,63,4.00241501,103.903191011835,-6.76271114,-6.72721114,-0.754200387500001,0,TRUE,8.37110209,FALSE,0.0001462,0,99
"mp-7096","Fe3S4",0,7,2,107.589741695306,4.56529726222381,15.3699630993294,2,166,11.4032083751559,16.7638160076004,-6.28867911571429,-6.57610768714286,-0.582412958928572,0.214156529285711,FALSE,5.63992883,TRUE,1.448204,3,100
"mp-7097","ThAs2",0,6,2,145.10329665216,8.740376899259,24.18388277536,4,129,4.10575996,90,-6.62616205833333,-6.62616205833333,-1.04879703833333,0,TRUE,5.91173387,FALSE,1e-07,0,123
"mp-7099","NdB2Ru3",0,6,3,81.9416810627504,9.50573251639589,13.6569468437917,6,191,3.048895,120.000007540557,-8.06591003166667,-8.06591003166667,-0.407553599305555,0.0176816933333316,FALSE,6.5765469,FALSE,2.37e-05,0,153
"mp-7100","LaOF",4.5691,6,3,96.2712576100389,5.99915667722825,16.0452096016732,4,129,4.06924407,90,-7.806221265,-8.189221265,-4.25782967041667,0,TRUE,4.52968004,FALSE,0,0,74
"mp-7101","Ce(AlGe)2",0,5,3,109.650079572057,5.13924848477293,21.9300159144114,2,164,4.29119844975387,90,-4.942808164,-4.942808164,-0.408748859,0.0124012254999996,FALSE,6.77779675,TRUE,1.029216,1,103
"mp-7104","CsCaF3",6.9005,5,3,92.3779592899089,4.13397908809232,18.4755918579818,3,221,4.52053103,90,-5.1727464,-5.4499464,-3.72285856908621,0,TRUE,-1.72263474,FALSE,0,0,93
"mp-7105","NdSi2",0,6,2,115.485834537998,5.76336686288582,19.2476390896663,3,227,5.46614613639281,60,-5.49762091833333,-5.450287585,-0.244026420833334,0.311643641666667,FALSE,7.54620839,FALSE,0.0004996,0,74
"mp-7107","Er(SiPt)2",0,5,3,86.0786022412314,11.8368958563267,17.2157204482463,4,139,5.74665038619481,137.355518331348,-6.522792088,-6.522792088,-1.010667786,0.0544548450000066,FALSE,7.19257249,FALSE,0.0030025,0,160
"mp-7108","Tm(SiPt)2",0,5,3,83.8437214129477,12.1855898643307,16.7687442825895,4,139,4.12913831671356,111.161543404773,-6.493777058,-6.493777058,-1.00002943333333,0,TRUE,7.19481097,FALSE,2.3e-06,0,161
"mp-7109","Lu(SiPt)2",0,5,3,83.5776742430861,12.3442401892193,16.7155348486172,4,139,5.67167551627915,137.083793844974,-6.479787534,-6.479787534,-0.97701689,0,TRUE,7.15269593,FALSE,1.7e-06,0,163
"mp-7112","Sr2Cu3(SO)2",0,9,4,142.554858145413,5.38164991649947,15.8394286828236,4,139,9.61901649693492,156.396347661646,-5.08699311444444,-5.35143755888889,-1.59111710634259,0.101948159305555,FALSE,4.86408923,FALSE,1.4e-05,0,120
"mp-7113","CrAuS2",0.5956,4,3,77.1953598371568,6.73489455114005,19.2988399592892,2,166,7.39623319494262,27.7016629174972,-5.809210885,-6.060710885,-0.7607535840625,0,TRUE,3.89808343,TRUE,3.0000001,1,119
"mp-7114","Ho3SnC",0,5,3,173.624376654297,5.98237740609398,34.7248753308594,3,221,5.57875,90,-3.925218212,-3.925218212,1.4718745795,2.00065681533333,FALSE,2.09202509,FALSE,0.0027818,0,190
"mp-7116","Nb3CoS6",0,20,3,352.563659415685,4.99289124510504,17.6281829707842,6,182,5.8298493850441,89.9999900680902,-7.214155811,-7.515955811,-1.292862599375,0,TRUE,5.98380239,TRUE,4.6784806,2,189
"mp-7117","LiAlSe2",3.3989,16,3,371.386307456386,3.43105842714386,23.2116442160241,7,33,6.55471648,90,-4.25081535125,-4.48681535125,-1.32523493825521,0,TRUE,1.18262109,FALSE,0,0,50
"mp-7118","Rb4SnO4",2.1626,18,3,407.765911809006,4.27246891259589,22.653661767167,5,2,6.78882176724097,71.4746519727983,-4.54582568666667,-4.85115902,-1.77132979888889,0,TRUE,0.66948636,FALSE,0,0,185
"mp-7120","Sm(AlSi)2",0,5,3,102.984494415011,4.20024970036138,20.5968988830021,2,164,4.19118423,90,-5.003155864,-4.974755864,-0.362681093000001,0.0175702589999984,FALSE,6.11425068,FALSE,7e-07,0,89
"mp-7121","Dy(AlSi)2",0,5,3,99.2777567936633,4.560130594187,19.8555513587327,2,164,4.16927189,90,-4.96355991,-4.93515991,-0.345444998000001,0.0246423789999994,FALSE,6.36373541,FALSE,0,0,93
"mp-7123","KSb(PSe3)2",1.8059,20,4,598.377064738261,3.86603976446312,29.918853236913,1,4,8.208081,88.3324862420553,-4.0654507115,-4.3486507115,-0.644503304872917,0,TRUE,1.78876371,FALSE,0.0016158,0,153
"mp-7124","TbSiPt",0,12,3,224.447724714241,11.3074601469802,18.70397705952,7,62,4.29144051,90,-6.55896205,-6.55896205,-1.1820229,0,TRUE,6.53559236,FALSE,0,0,157
"mp-7126","TiSnSb",0,12,3,262.147904449836,7.30572085023652,21.845658704153,7,70,5.48336295226377,82.4079943754405,-5.6755129175,-5.7395129175,-0.394824546944444,0,TRUE,8.26077854,FALSE,4e-07,0,123
"mp-7127","Ba2YbTaO6",0,10,4,157.071637588697,7.66077308141861,15.7071637588697,3,225,6.05625644377779,60,-7.564055351,-7.976255351,-3.28470854525,0,TRUE,1.4814312,FALSE,0.999856,0,239
"mp-7128","Cd(AsO3)2",1.9349,9,3,99.8418512700946,5.95831416750859,11.0935390300105,2,162,4.85315831,90,-5.68178595333333,-6.13978595333333,-1.70409052694444,0,TRUE,2.13534478,FALSE,0,0,97
"mp-7129","Rb2Ti(CuS2)2",1.4368,18,4,424.534813423602,3.7092469781623,23.5852674124223,4,132,5.632148,90,-4.89779211944444,-5.121347675,-1.27681734509259,0,TRUE,2.74222738,FALSE,0.0044386,0,104
"mp-7130","ScRu3C",0,5,3,66.9880502009027,8.9282690466123,13.3976100401805,3,221,4.06130662,90,-8.953600442,-8.953600442,-0.2767319985,0,TRUE,7.02019737,FALSE,7.28e-05,0,115
"mp-7131","PrTe",0,2,2,59.6649983865552,7.47284764205124,29.8324991932776,3,221,3.907568,90,-5.307653535,-5.518653535,-1.55654771083333,0.0921275400000007,FALSE,6.17007248,TRUE,0.5188723,1,111
"mp-7132","DySe",0,4,2,126.512379108815,6.33856964584265,31.6280947772037,6,186,4.14611532186998,90,-5.3220348325,-5.5580348325,-1.50668567367187,0.4722147325,FALSE,3.45201882,TRUE,1.9444619,2,100
"mp-7135","TbS2",0,6,2,119.184380771662,6.21544736468022,19.8640634619437,4,129,3.86643789,89.9948567690485,-5.97039157833333,-6.30572491166667,-2.00330296708333,0.0593353341666675,FALSE,6.07272282,FALSE,4.9e-06,0,81
"mp-7137","LiTbO2",4.5867,16,3,200.094369907379,6.56815704801201,12.5058981192112,7,62,3.38492784,90,-7.03799912375,-7.38149912375,-3.27233252645833,0,TRUE,0.91686794,FALSE,0,0,76
"mp-7138","YbSb2",0,6,2,165.621926905267,8.35292966949414,27.6036544842111,7,63,4.26942195,105.058132628418,-3.90336043833333,-4.03136043833333,-0.765490185,0,TRUE,6.14693668,FALSE,0,0,121
"mp-7139","N2O",3.3297,12,2,210.279838473798,1.39024215275987,17.5233198728165,3,205,5.946561,90,-5.65595886416667,-5.88495886416667,1.32160065625,1.66516484333333,FALSE,-2.18398895,FALSE,0.0005188,0,15
"mp-7140","SiC",2.3029,4,2,41.2746586234724,3.22625595184659,10.3186646558681,6,186,3.0735135,90,-7.526978555,-7.526978555,-0.199986793750001,0.0037894055,FALSE,8.23938418,FALSE,0,0,20
"mp-7142","OsC",0,2,2,20.5471716226506,16.3442730403012,10.2735858113253,6,187,2.94786836805801,90,-9.3119312,-9.3119312,0.91608526125,0.91608526125,FALSE,9.7483183,FALSE,0.0007381,0,82
"mp-7143","BaPuO3",0,5,3,84.0911173432192,8.47784271870357,16.8182234686438,3,221,4.38110308,90,-9.207679698,-9.619879698,-3.41450381725,0.0243402839999991,FALSE,6.40063044,TRUE,4,1,72
"mp-7144","Sm3AlC",0,5,3,126.235690600763,6.44654529775668,25.2471381201526,3,221,5.01642188,90,-5.682542038,-5.682542038,-0.2565420925,0.0026391752500014,FALSE,3.31135497,FALSE,3.7e-06,0,143
"mp-7147","KCrP2S7",1.1285,11,4,275.399072368944,2.27614561091753,25.0362793062676,1,5,6.51969274009519,85.133467754571,-5.14638114272727,-5.46647205181818,-0.871453824685607,0,TRUE,2.44395923,TRUE,3.0000936,1,154
"mp-7148","K2SrTa2O7",2.0748,12,4,178.292301503358,5.95797116278066,14.8576917919465,4,139,11.4039224461993,159.707445402539,-7.9395229825,-8.3402729825,-3.15255068365972,0,TRUE,1.53003698,FALSE,0.0003329,0,178
"mp-7149","Na2LiN",0.4063,4,3,67.4945890356753,1.64658079760728,16.8736472589188,6,191,4.48676657431663,90,-3.16197813,-3.25222813,-0.0296110353591956,0.20522662625479,FALSE,0.76944256,FALSE,8.89e-05,0,21
"mp-7151","CsUCuSe3",0,12,4,359.504791512941,6.20197635758929,29.9587326260784,7,63,8.3440775632292,90,-5.54162599083333,-5.77762599083333,-1.31533374332705,0,TRUE,4.37577844,TRUE,4.0000002,2,244
"mp-7152","CsZrCuSe3",0.2984,12,4,330.811926006307,5.26610289413423,27.5676605005256,7,63,3.946362,90,-5.12638917666667,-5.36238917666667,-1.35738182582705,0,TRUE,3.41984656,FALSE,0,0,192
"mp-7155","CsErZnSe3",2.1566,12,4,370.977082840947,5.39331154920362,30.9147569034123,7,63,4.160368,90,-4.28070388583333,-4.51670388583333,-1.64827068166038,0,TRUE,1.52134458,FALSE,0,0,221
"mp-7157","Tb(AlGe)2",0,5,3,103.352102412976,5.75462571058065,20.6704204825953,2,164,4.2291292,90,-4.694904042,-4.694904042,-0.420589348,0,TRUE,6.01148656,FALSE,2.3e-06,0,110
"mp-7158","Lu(AlGe)2",0,5,3,99.5392335055822,6.24266864855006,19.9078467011164,2,164,4.21867072,90,-4.611410422,-4.611410422,-0.359778844,0.0006577139999972,FALSE,6.11403534,FALSE,0.0015576,0,116
"mp-7159","La3TlC",0,5,3,143.941477905062,7.30369442204519,28.7882955810124,3,221,5.24077264,90,-5.571156512,-5.571156512,-0.291290521166667,0,TRUE,7.37765274,FALSE,4.7e-06,0,201
"mp-7162","Sn",0,1,1,27.2049683472163,7.24583061741574,27.2049683472163,3,229,3.2816343592293,109.471235295392,-3.9353751,-3.9353751,0.074196755,0.074196755,FALSE,7.5666334,FALSE,1e-07,0,50
"mp-7163","Tb",0,1,1,32.0046858695925,8.24572231151971,32.0046858695925,3,225,3.5637697545104,59.9999886000382,-4.61548096,-4.61548096,0.01888514,0.01888514,FALSE,3.4637735,FALSE,0,0,65
"mp-7166","Pr3TlC",0,5,3,202.448334190514,5.24221978829682,40.4896668381028,3,221,5.871802,90,-3.595997522,-3.595997522,1.59080765883333,1.808493323,FALSE,2.05018528,FALSE,2.8e-06,0,205
"mp-7167","SmRh3C",0,5,3,73.2810041249246,10.6747813941204,14.6562008249849,3,221,4.18469494,90,-7.640704826,-7.640704826,-0.432669778500001,0,TRUE,6.10359398,FALSE,1e-07,0,158
"mp-7168","TbPPt",0,3,3,57.2300879356014,11.1703392484142,19.0766959785338,6,187,4.11561334,90,-6.72547376666667,-6.72547376666667,-1.35253979111111,0,TRUE,6.50309873,FALSE,2.3e-06,0,158
"mp-7169","TmPPt",0,3,3,55.0453952396849,11.9156125166035,18.348465079895,6,187,4.08476419,90,-6.64354115,-6.64354115,-1.32345073333333,0,TRUE,6.53776867,FALSE,5.7e-06,0,162
"mp-7170","UTeP",0,6,3,145.700741687349,9.04009441746212,24.2834569478915,4,139,9.03527863161255,153.590547188043,-7.36198165,-7.50264831666667,-0.886642179999999,0,TRUE,9.44490389,TRUE,3.7054387,2,159
"mp-7171","TmP",0,2,2,43.3342512519144,7.66033766918065,21.6671256259572,3,225,3.9425951870243,59.9999933705487,-6.54764559,-6.54764559,-1.603076625,0,TRUE,4.66144598,FALSE,2e-07,0,84
"mp-7173","ScSbPt",0.6441,3,3,64.2613237326067,9.34905870704309,21.4204412442022,3,216,4.49595042193623,60.0000009679341,-6.68103989,-6.74503989,-1.23417200166667,0,TRUE,7.07734347,FALSE,0,0,150
"mp-7176","RbLaSe2",2.32,4,3,137.103112915477,4.63018596904229,34.2757782288692,2,166,8.34659254198645,31.0332474783677,-5.03258592,-5.26858592,-2.04149488679687,0,TRUE,2.0196782,FALSE,0,0,128
"mp-7180","UGeAu",0,12,3,260.03872490783,12.9665078887075,21.6698937423192,6,194,4.45076563427743,90,-6.45681342,-6.45681342,-0.0607067983333327,0.227916616875001,FALSE,8.15467925,TRUE,0.5477958,2,203
"mp-7181","CsSr2Ta3O10",2.0452,16,4,247.996056086325,6.76936942572847,15.4997535053953,4,123,3.971811,90,-8.50969141625,-8.93906641625,-3.35690333617277,0,TRUE,1.43231839,FALSE,0.0002793,0,239
"mp-7186","NdAl3Ni2",0,6,3,97.7139106510723,5.82165360412032,16.2856517751787,6,191,5.31000967,90,-5.20470519166667,-5.20470519166667,-0.61051381125,0,TRUE,6.53478792,FALSE,4.1e-06,0,114
"mp-7187","TiAlNi2",0,4,3,49.9325034855005,6.39291578518736,12.4831258713751,3,225,4.13332408115178,60.0000106977234,-6.423404485,-6.423404485,-0.623069183333333,0,TRUE,8.02161151,FALSE,7.21e-05,0,63
"mp-7188","Al2Os",0.289899999999999,3,2,41.3304079139568,9.81098820335959,13.7768026379856,4,139,3.15532681830114,109.559723764018,-6.80194535333333,-6.80194535333333,-0.562438989999999,0,TRUE,9.1716797,FALSE,0,0,89
"mp-7189","AlPd",0,8,2,115.202173688575,7.69146828734943,14.4002717110718,3,198,4.8657922,90,-5.37675031,-5.37675031,-0.91402149,0,TRUE,7.02512488,FALSE,0,0,59
"mp-7191","Sr3GaN3",0.5667,14,3,269.61664902533,4.61427797035654,19.2583320732379,6,176,7.58021642006425,90,-5.363840625,-5.51855491071429,-0.789117602499999,0,TRUE,2.38766227,FALSE,0,0,121
"mp-7192","Sc2Sb",0,6,2,140.116015115436,5.01711860362146,23.352669185906,4,129,4.22397718,90,-6.38077037333333,-6.44477037333333,-0.846790556666666,0,TRUE,6.06061737,TRUE,0.900922,2,72
"mp-7193","Lu2Si2O7",4.8449,11,3,135.36739976876,6.35549342239239,12.3061272517054,1,12,4.71275877090573,105.134113368073,-8.24424494272727,-8.68142676090909,-3.72512148102273,0,TRUE,1.8699164,FALSE,1e-06,0,133
"mp-7194","TbCuAs2",0,8,3,150.018151138689,8.24224069748794,18.7522688923361,4,129,3.8837111,90,-5.3401378025,-5.3401378025,-0.8271854075,0,TRUE,5.76424705,FALSE,0,0,127
"mp-7198","SrPSe3",2.1432,20,3,548.33371088174,4.30597686947303,27.416685544087,1,14,7.06898753043792,90,-4.4756590135,-4.7588590135,-1.24075293490625,0,TRUE,2.25036803,FALSE,0,0,121
"mp-7199","RbPrTe4",0.1932,12,3,453.29279726344,5.39803158321867,37.7743997719534,4,125,7.0061598,90,-4.01805572,-4.29938905333333,-1.24361181986111,0,TRUE,4.25657451,FALSE,0,0,252
"mp-7203","Ce3Sn13Rh4",0,40,3,936.506609744732,8.42303161547014,23.4126652436183,3,223,9.783711,90,-5.52301760675,-5.52301760675,-0.553970953749999,0.17057217875,FALSE,8.80347196,TRUE,0.0938251,3,251
"mp-7204","CaZnSO",2.6853,8,4,142.407726299257,3.58095877319618,17.8009657874072,6,186,3.77892024346651,90,-4.96428121375,-5.26178121375,-2.17466069671875,0.0102327801785691,FALSE,2.14203014,FALSE,0,0,74
"mp-7205","LiInSiO4",2.8934,28,4,321.619880702911,4.41630859830823,11.4864243108183,7,62,4.912569,90,-6.52970920964286,-6.92228063821428,-2.65475499940476,0,TRUE,3.17603168,FALSE,0.0002509,0,90
"mp-7206","TcAgO4",1.6034,12,3,161.045725291801,5.56516110970723,13.4204771076501,4,88,5.28960723810441,112.65926389597,-6.567207255,-7.025207255,-1.52854895611111,0,TRUE,0.49529364,FALSE,0,0,114
"mp-7208","Yb2Se3",0,20,2,589.841559931145,6.56466359798817,29.4920779965573,7,70,16.0260146178651,83.8324068936853,-4.077903974,-4.361103974,-1.64771377540625,0.209702045531249,FALSE,1.77946886,FALSE,0.0005197,0,138
"mp-7210","Cd2B2O5",2.4657,18,3,211.995481501893,5.11395836929789,11.7775267501052,5,2,3.45243063652509,105.615810760858,-6.29812427222222,-6.67979093888889,-2.24223464800926,0,TRUE,0.5628616,FALSE,0,0,85
"mp-7211","CsPrHgSe3",1.3367,12,4,416.796850109012,5.66757343683601,34.7330708424177,7,63,8.48733253212221,90,-3.9755200875,-4.2115200875,-1.46689959999371,0,TRUE,1.40535786,FALSE,0.0022886,0,262
"mp-7212","CsSmHgSe3",1.3625,12,4,405.638796769785,5.90086246233883,33.8032330641487,7,63,8.49011421721204,90,-3.96520265666667,-4.20120265666667,-1.46696877249371,0,TRUE,1.37331062,FALSE,0.0020822,0,265
"mp-7214","Sr3CrN4",1.5373,64,3,1097.79975675941,4.48799913311602,17.1531211993658,7,61,9.57395428,90,-6.92084954890625,-7.10134954890625,-1.09291110765625,0,TRUE,2.57513583,FALSE,0,0,121
"mp-7219","Na2ZrSe3",1.3166,12,3,286.573853664414,4.33521985350602,23.8811544720345,1,12,6.9557693468963,80.663244686212,-4.90573729333333,-5.14173729333333,-1.52832301835578,0,TRUE,1.94454642,FALSE,0,0,119
"mp-7220","NaY3SiS7",2.1957,24,4,497.010765254549,3.62335687933011,20.7087818856062,6,173,9.98512532797426,90,-6.17287718666667,-6.46629385333333,-1.87442670903556,0.0677393933333334,FALSE,4.00922325,FALSE,9.46e-05,0,199
"mp-7221","Nb5(AsPd)4",0,13,3,215.194575483181,9.18179562841889,16.5534288833216,4,87,7.74665161356576,93.4811096032761,-7.41794245076923,-7.41794245076923,-0.505440446153845,0.0649978214850426,FALSE,6.4382957,FALSE,0.0080775,0,335
"mp-7223","Ca3AsN",0.717,5,3,107.232785656416,3.23895502932063,21.4465571312832,3,221,4.75089971,90,-4.890336274,-4.962536274,-1.16005368,0.0058243110000004,FALSE,3.73305062,FALSE,0,0,80
"mp-7224","ThC2",0,6,2,93.8555727908236,9.06066041811152,15.6425954651373,1,15,3.98410632104206,78.4325664765146,-8.87540471666667,-8.87540471666667,-0.251674971666667,0,TRUE,7.00809941,FALSE,1e-07,0,96
"mp-7225","CeAl2Pt3",0,6,3,108.728930834534,11.9021652247778,18.1214884724224,6,191,4.011468,120.000009877062,-6.30965692833333,-6.30965692833333,-1.03671679916667,0.0197764283333308,FALSE,8.13771323,TRUE,0.8720665,1,227
"mp-7226","V3Ni",0,8,2,99.8783298331424,7.03323206989877,12.4847912291428,3,223,4.6397022,90,-8.41419466125,-8.41419466125,-0.156230938750001,0,TRUE,6.67725754,FALSE,6e-07,0,74
"mp-7228","ReO2",0,12,2,125.985081329157,11.5041956281168,10.4987567774298,7,60,4.5850747,90,-8.885245855,-9.343245855,-1.8972776525,0.0016912188888902,FALSE,5.8217061,FALSE,1.5e-06,0,83
"mp-7229","B5Mo2",0,7,2,59.0954198954484,6.91059774288405,8.44220284220692,2,166,7.3831744666268,24.1266795784287,-7.80432421857143,-7.80432421857143,0.065427077738096,0.43547361011905,FALSE,9.93901936,FALSE,0.0189101,0,62
"mp-7232","Cs2HgO2",2.0689,5,3,143.141372816686,5.78178176341548,28.6282745633371,4,139,4.43915517923372,106.28984344831,-3.414557816,-3.689357816,-1.29178530967241,0,TRUE,0.69772663,FALSE,0,0,143
"mp-7233","La2SeO2",2.4067,5,3,103.645239157601,6.22862512961434,20.7290478315203,2,164,4.08729761,90,-7.775014178,-8.144214178,-3.49195355596875,0,TRUE,5.73353796,FALSE,0,0,99
"mp-7234","Nb5N6",0,22,2,250.356061482356,7.27703893009997,11.3798209764707,6,193,5.25040736,90,-10.149142185,-10.3460512759091,-1.207369935,0,TRUE,6.92956339,FALSE,4.6e-06,0,199
"mp-7236","Ho",0,1,1,31.5469949574124,8.68143669457458,31.5469949574124,3,229,3.44767680931779,109.471199321032,-4.43741718,-4.43741718,0.14499169,0.14499169,FALSE,2.94190103,FALSE,1e-07,0,67
"mp-7237","CuAgO2",0,4,3,51.5253095736229,6.55552069360533,12.8813273934057,1,12,3.57763874727242,68.7927913790182,-4.571445375,-4.914945375,-0.708660351041666,0.0188720825000006,FALSE,2.53088728,FALSE,0.0004791,0,84
"mp-7238","NdBO3",4.6987,20,3,234.246514580203,5.75760029086053,11.7123257290101,7,62,5.0493033,90,-8.3036639875,-8.7158639875,-3.45834292008333,0.007969211999999,FALSE,2.29857216,FALSE,0,0,81
"mp-7239","PrMgGa",0,9,3,221.884190948347,5.27464110842689,24.6537989942608,6,189,7.49289121,90,-3.61888507,-3.61888507,-0.482457794166666,0,TRUE,3.60064496,FALSE,0,0,102
"mp-7240","NaRuO2",0,4,3,44.8655229360455,5.77595743922435,11.2163807340114,2,166,3.1170597872285,73.9219092247956,-6.1972347425,-6.5407347425,-1.41815842851293,0.0953134959375008,FALSE,5.19152607,TRUE,0.9999301,1,63
"mp-7241","Ho2InPd2",0,10,3,215.465833253361,10.1346498630606,21.5465833253361,4,127,3.60172996,90,-5.33451813,-5.33451813,-0.879265111999999,0,TRUE,5.04545541,FALSE,0,0,162
"mp-7243","LiSnPd2",0,4,3,62.5120810109766,8.99150244404445,15.6280202527441,3,225,4.45477967793344,60.0000072646582,-4.730173025,-4.730173025,-0.660608439583333,0,TRUE,6.31295667,FALSE,4.3e-06,0,99
"mp-7245","P",0,2,1,31.6349679007724,3.25166391835124,15.8174839503862,7,74,3.71788827168102,56.8123688369231,-5.319789535,-5.319789535,0.0935129716666667,0.0935129716666667,FALSE,8.73464655,FALSE,0,0,15
"mp-7247","CeZn3Cu2",0,6,3,97.2420250313502,7.91377927477006,16.2070041718917,6,191,5.17381050000092,90,-3.24492629666667,-3.24492629666667,-0.259804075833333,0,TRUE,5.34771058,TRUE,1.0411782,1,147