"material_id","formula_pretty","band_gap","nsites","nelements","volume","density","density_atomic","crystal_symmetry","symmetry_number","sides_abc","angles_abc","uncorrected_energy_per_atom","energy_per_atom","formation_energy_per_atom","energy_above_hull","is_stable","efermi","is_magnetic","total_magnetization","num_magnetic_sites","atomic_number"
"mp-2491","ErSe",0,2,2,45.688051629751,8.94886636340928,22.8440258148755,3,225,4.01272218397517,60.0000111263428,-5.7190143,-5.9550143,-1.92319915617188,0,TRUE,5.78717432,FALSE,3e-06,0,102
"mp-2493","CeN",0,2,2,32.9408829598685,7.7692745732306,16.4704414799343,3,225,3.598184784664,59.9999957456928,-8.633277775,-8.813777775,-1.678985735,0,TRUE,8.63664638,TRUE,0.7594189,1,65
"mp-2495","PrS",0,2,2,48.9592792915553,5.86666811551433,24.4796396457777,3,225,4.10629406943607,59.9999930259398,-6.47432648,-6.72582648,-2.2671486690625,0,TRUE,5.96633246,FALSE,3e-07,0,75
"mp-2496","Cs4Sn23",0.113799999999999,54,2,1994.99943175048,5.43017539121159,36.9444339213052,3,223,12.5887012,90,-3.71470019666667,-3.71470019666667,-0.166486783582376,0,TRUE,4.92859056,FALSE,3.26e-05,0,215
"mp-2497","GdZn",0,2,2,46.0309164688149,8.03229647362285,23.0154582344074,3,221,3.58385041,90,-8.03297558,-8.03297558,-0.365042655000001,0,TRUE,2.91231669,TRUE,7.8055925,1,94
"mp-2498","PrOs2",0,6,2,114.367407130781,15.1398265048789,19.0612345217968,3,227,5.44844298845794,60.0000092286451,-9.10772449666667,-9.10772449666667,-0.0291776250000002,0.0223354175000007,FALSE,6.2264019,FALSE,2.04e-05,0,135
"mp-2499","BaSi",0,4,2,127.649957584089,4.30354891693608,31.9124893960223,7,63,4.1494084,112.708178513956,-4.0936262525,-4.0581262525,-0.3859797675,0,TRUE,3.97037907,FALSE,1e-07,0,70
"mp-2500","AlCu",0,10,2,136.378946036781,5.51128010653116,13.6378946036781,1,12,4.05572183944706,65.486877484931,-4.135819198,-4.135819198,-0.213427948,0,TRUE,8.4026492,FALSE,0,0,42
"mp-2501","BMo2",0,6,2,73.0268812441442,9.21787479388515,12.171146874024,4,140,4.58438291252013,105.553936915228,-9.77339626333333,-9.77339626333333,-0.316498933055556,0.0183242799999998,FALSE,8.6262136,FALSE,1e-07,0,47
"mp-2502","TmCd",0,2,2,49.5474211508295,9.42904194718032,24.7737105754148,3,221,3.67288236,90,-3.012850265,-3.012850265,-0.313487673333333,0,TRUE,3.14161461,FALSE,4e-07,0,117
"mp-2503","Pd7Se4",0,22,2,387.265781811258,9.09693917613633,17.6029900823299,7,18,5.3086975900502,90.0011638273477,-4.83049268909091,-5.00212905272727,-0.434600090852272,0,TRUE,4.28983637,FALSE,0,0,378
"mp-2504","RbZn13",0,28,2,457.734073216977,6.78956323880166,16.3476454720349,3,226,8.65053092415022,59.9999995655876,-1.28786117071429,-1.28786117071429,-0.0480610991071428,0,TRUE,2.42813392,FALSE,1e-07,0,37
"mp-2507","GaS",2.0036,8,2,179.069830042453,3.77557627593683,22.3837287553066,6,194,3.5932455,90,-4.23401729625,-4.48551729625,-0.9032443515625,0,TRUE,1.57488932,FALSE,0,0,47
"mp-2509","ThRh3",0,4,2,69.3702200305454,12.9442298428159,17.3425550076363,3,221,4.10888851,90,-8.094381425,-8.094381425,-0.71768596,0,TRUE,7.38608208,FALSE,0.0014988,0,180
"mp-2510","ZrHg",0,4,2,84.8631250849431,11.4200024261607,21.2157812712358,4,123,4.28169634,90,-4.595419905,-4.595419905,-0.1697294075,0,TRUE,4.31428055,FALSE,0.0001098,0,120
"mp-2511","PbF2",4.3804,12,2,190.530779144889,8.54788665348672,15.8775649287408,7,62,3.87964277,90,-4.8635653725,-5.1715653725,-2.6596970375,0.0227109708333328,FALSE,2.1820871,FALSE,0,0,91
"mp-2512","AsPd5",0,12,2,181.962533307757,11.0790178917241,15.1635444423131,1,12,4.77693221125998,95.0147589153864,-5.36310883083333,-5.36310883083333,-0.270020921666666,0,TRUE,4.74110672,FALSE,1e-07,0,217
"mp-2513","As2Pt",0.0785,12,2,216.903091326452,10.562598941864,18.0752576105377,3,205,6.00835033,90,-5.64736749916667,-5.64736749916667,-0.517577455833333,0,TRUE,6.16536856,FALSE,0,0,111
"mp-2514","Mg3P2",1.6068,40,2,866.292213966834,2.06807343860859,21.6573053491708,3,206,10.4014871723196,109.471224681218,-3.792177939,-3.792177939,-0.666688906333333,0,TRUE,2.95663896,FALSE,0,0,39
"mp-2515","CrPt3",0,4,2,59.1344964400825,17.8943836317066,14.7836241100206,3,221,3.89595267,90,-7.2169824475,-7.2169824475,-0.25037059,0,TRUE,7.48153479,TRUE,2.9274218,1,180
"mp-2516","YZn",0,2,2,45.2080528093221,5.66814585141079,22.604026404661,3,221,3.56236652,90,-4.2298862,-4.2298862,-0.366778838333333,0,TRUE,3.10203953,FALSE,9e-07,0,69
"mp-2517","Ca2Si",0.2915,12,2,331.55988262453,2.16840756432438,27.6299902187108,7,62,4.83215368,90,-3.60361958083333,-3.57995291416667,-0.434446984166667,0,TRUE,3.5035371,FALSE,0,0,34
"mp-2520","TmSb",0,2,2,57.2879003094673,8.42602171718367,28.6439501547336,3,225,4.32705693225829,60.0000166767275,-5.36233801,-5.45833801,-1.15591967833333,0,TRUE,5.45923354,FALSE,2e-07,0,120
"mp-2522","LuHg",0,2,2,47.047045688388,13.2553927905619,23.523522844194,3,221,3.61002979,90,-2.88411634,-2.88411634,-0.4718008975,0,TRUE,3.90364887,FALSE,3e-07,0,151
"mp-2523","PuPt3",0,4,2,68.9712934186571,19.964905307745,17.2428233546643,3,221,4.10158149,90,-8.8359615525,-8.8359615525,-0.715651980000001,0,TRUE,9.35540202,TRUE,4.3518971,1,156
"mp-2524","NdGa2",0,3,2,67.4132698706341,6.98786763540194,22.471089956878,6,191,4.23849217,90,-4.30106157333333,-4.30106157333333,-0.692948414166667,0,TRUE,3.54349591,FALSE,8.7e-06,0,91
"mp-2525","PrAg",0,2,2,53.2934852542792,7.75145434344532,26.6467426271396,3,221,3.76320642,90,-4.05100001,-4.05100001,-0.244269130833333,0,TRUE,3.55515449,FALSE,1e-07,0,106
"mp-2529","PrRh2",0,6,2,111.480309945158,10.3289964609364,18.5800516575263,3,227,5.40220656524602,59.9999907629131,-7.13394871166667,-7.13394871166667,-0.630774879999999,0,TRUE,5.56315768,FALSE,1.7e-06,0,104
"mp-2530","Li2Te",2.4914,3,2,69.0928437375002,3.400299879294,23.0309479125001,3,225,4.60591646418905,59.99999886875,-3.35780413333333,-3.4984708,-1.17808692444444,0,TRUE,2.26399067,FALSE,0,0,55
"mp-2531","Er2Co17",0,38,2,470.196130334975,9.43910380712796,12.3735823772362,6,194,8.22058090200162,89.9998669486986,-6.94747536105263,-6.94747536105263,-0.106589038157894,0,TRUE,4.63358932,TRUE,56.1778103,38,68
"mp-2532","PrTe",0,2,2,65.971692556893,6.75846602118705,32.9858462784465,3,225,4.53549023117781,60.0000076691728,-5.399781075,-5.610781075,-1.64867525083333,0,TRUE,5.95357896,FALSE,1.5e-05,0,111
"mp-2533","NbO2",0,6,2,72.5322508416796,5.71910918533139,12.0887084736133,4,136,2.92777337,90,-9.07781535666667,-9.53581535666666,-2.8709212025,0.0275551875000008,FALSE,4.25224356,FALSE,0,0,49
"mp-2534","GaAs",0.1861,2,2,47.5318593853438,5.05320036242451,23.7659296926719,3,216,4.0659930511522,59.9999911770985,-4.19612485,-4.19612485,-0.35251763625,0,TRUE,2.72603823,FALSE,0,0,64
"mp-2536","Ni2B",0,6,2,51.1349002540227,8.32611207197677,8.52248337567046,4,140,4.07120507806852,105.528833110549,-6.369610495,-6.369610495,-0.289722118055555,0,TRUE,8.79724342,FALSE,0,0,33
"mp-2537","NdS2",0,6,2,124.104394242267,5.57610950842114,20.6840657070445,3,227,5.59887432186221,60,-4.55836169833333,-4.89369503166667,-0.546679309583334,1.5271634475,FALSE,6.69992981,FALSE,0.0323104,0,76
"mp-2538","Y5Si3",0,16,2,396.078230257941,4.4338180119849,24.7548893911213,6,193,8.45266508,90,-6.796100799375,-6.769475799375,-0.693437092291667,0,TRUE,4.4616458,FALSE,0.0001402,0,184
"mp-2540","VTc",0,2,2,27.2469491248442,9.07709623762943,13.6234745624221,3,221,3.00911852,90,-10.09467696,-10.09467696,-0.3724044525,0,TRUE,7.73783614,FALSE,5.6e-06,0,66
"mp-2541","SmTl",0,4,2,112.920208921998,10.4332982357748,28.2300522304996,4,123,4.25183612,90,-3.92454693,-3.92454693,-0.383932289166667,0,TRUE,5.18324935,FALSE,0.0007447,0,143
"mp-2542","BeO",7.4639,4,2,27.5102328881181,3.01943710890268,6.87755822202952,6,186,2.69427722,90,-7.1030427375,-7.4465427375,-3.103491949375,0,TRUE,2.6082371,FALSE,0,0,12
"mp-2544","Zr2Be17",0,19,2,179.467994023046,3.10567017547832,9.44568389594978,2,166,5.68107072113043,82.9102363769982,-4.48279932210526,-4.48279932210526,-0.237250902894737,0,TRUE,4.30187156,FALSE,0,0,40
"mp-2545","YbHg",0,2,2,48.949446227699,12.6748565973087,24.4747231138495,3,221,3.65804683,90,-1.559437375,-1.559437375,-0.6377930525,0,TRUE,2.46702955,FALSE,4e-07,0,150
"mp-2546","NpC",0,2,2,30.4444353342495,13.5818579261426,15.2222176671247,3,225,3.50488931224967,60,-10.9166289,-10.9166289,0.171593686874999,0.171593686874999,FALSE,11.9502104,TRUE,2.8974629,1,6
"mp-2547","YbPd",0,2,2,39.2022798829192,11.8374300917694,19.6011399414596,3,221,3.39706436,90,-4.2201108,-4.2201108,-0.860365754999999,0,TRUE,3.39369093,FALSE,0,0,116
"mp-2548","PuAs",0,2,2,50.8163196852071,10.421490168182,25.4081598426036,3,225,4.15756809167718,60.0000107163453,-10.52461747,-10.52461747,-1.0611391025,0,TRUE,7.87746837,TRUE,5.0001238,1,33
"mp-2550","NdTe2",0,6,2,186.899145679104,7.09782854737784,31.149857613184,4,129,4.51443228,90,-4.94080694833333,-5.22214028166667,-1.53722054194444,0.0024092425000015,FALSE,6.45852989,FALSE,0,0,112
"mp-2551","DyCo5",0,6,2,82.7631051539673,9.1724683359272,13.7938508589946,6,191,4.919766,90,-6.80332843,-6.80332843,-0.111932460833335,0.0195852510606053,FALSE,4.33720443,TRUE,7.1992994,6,174
"mp-2552","TeO3",1.1503,8,2,91.5364603135005,6.37096234934124,11.4420575391876,2,167,5.19994121135654,56.5676063288284,-5.30310681875,-5.81835681875,-1.32251381197917,0.0201215525,FALSE,4.2079196,FALSE,0,0,68
"mp-2553","HfBe2",0,3,2,39.2150879672794,8.32128130994708,13.0716959890931,6,191,3.77950106,90,-5.98275003666667,-5.98275003666667,-0.170745116666667,0.0127650493333337,FALSE,3.90919532,FALSE,2e-07,0,76
"mp-2554","Al3V",0,4,2,57.6585975915578,3.79825484447955,14.4146493978894,4,139,3.74142279871845,112.465966606554,-5.3690561025,-5.3690561025,-0.288897712500001,0,TRUE,8.06089505,FALSE,3.6e-06,0,49
"mp-2556","TlSn",0,2,2,57.925287653991,9.26208688011148,28.9626438269955,4,123,3.39335574,90,-3.13850257,-3.13850257,0.0476049308333332,0.0476049308333332,FALSE,6.70415704,FALSE,7.7e-06,0,131
"mp-2557","Zr2Al",0,6,2,123.410440703007,5.63592397149325,20.5684067838346,6,194,4.89977641,90,-7.30506613,-7.30506613,-0.358073766666667,0.017946858666666,FALSE,4.87201166,FALSE,0.0002214,0,53
"mp-2558","SmMg",0,2,2,57.1836637843244,5.07204395230087,28.5918318921622,3,221,3.85263021,90,-3.2590482,-3.2590482,-0.0996151075,0,TRUE,3.14469166,TRUE,0.1588045,1,74
"mp-2559","SeS",0,2,2,39.7931697991509,4.63298980201368,19.8965848995755,3,225,3.83213833058281,60,-3.416357435,-3.667857435,0.148323237265625,0.384928130662201,FALSE,5.71514793,FALSE,6.49e-05,0,50
"mp-2560","Ti3Hg",0,4,2,70.9553216735043,8.05496456632291,17.7388304183761,3,221,4.139949,90,-6.0293023125,-6.0293023125,-0.0317632087499992,0.0709882412500002,FALSE,5.48246365,FALSE,0.0168308,0,124
"mp-2562","MnS",0,4,2,85.8565697195766,3.36542574685967,21.4641424298942,6,186,3.95357707,90,-7.118459225,-7.369959225,-0.720726645528017,0.0815744474999968,FALSE,3.14668744,TRUE,1.5e-05,2,41
"mp-2563","CeSe",0,2,2,55.1392130280916,6.59755982315391,27.5696065140458,3,225,4.27226876177133,59.999996774059,-6.529308575,-6.765308575,-2.05080825867187,0,TRUE,7.57175789,TRUE,1.1608146,1,92
"mp-2564","SrMg",0,2,2,73.5768145849534,2.52601089184979,36.7884072924767,3,221,4.19031811,90,-1.70271477,-1.70271477,-0.0578280183333332,0.0114813908333333,FALSE,2.08656747,FALSE,0,0,50
"mp-2565","S2N",1.6968,24,2,598.370619587431,1.73469804349237,24.9321091494763,4,102,11.868408,90,-5.10826906916667,-5.2286024025,0.30786248375,0.30786248375,FALSE,0.97876167,FALSE,0,0,23
"mp-2566","PuSb",0,2,2,62.4601825497256,9.72393522090794,31.2300912748628,3,225,4.45354771758404,59.9999982075723,-9.83488499,-9.93088499,-0.732465205,0.0049041697499969,FALSE,7.79074882,TRUE,5.006479,1,51
"mp-2567","V3Si",0,8,2,102.743890705448,5.84770774156944,12.842986338181,3,223,4.68366958,90,-8.63221665125,-8.61446665125,-0.44520759125,0,TRUE,7.35063881,TRUE,1.5797354,6,60
"mp-2568","YSi2",0,3,2,57.3953569785183,4.19730427279045,19.1317856595061,6,191,4.07548576,90,-6.29849163666667,-6.25115830333333,-0.478789245555556,0.0656317066666662,FALSE,6.7586658,FALSE,0,0,53
"mp-2570","PuFe2",0,6,2,78.7125024347657,15.0074542754743,13.1187504057943,3,227,4.81045591769346,60,-10.1096058483333,-10.1096058483333,0.293021068333334,0.293021068333335,FALSE,11.29850372,FALSE,0.0096221,0,26
"mp-2571","Rb2O3",0,20,2,413.063758438151,3.52050375248427,20.6531879219075,3,220,8.12605319572319,109.471220634491,-4.2882314965,-4.3848314965,-1.02460464075,0.0527123374999991,FALSE,0.94916955,TRUE,3.9996576,12,53
"mp-2572","SrMg2",0,12,2,375.213759197693,2.41158786422573,31.2678132664745,6,194,6.50676951000207,90,-1.71012926416667,-1.71012926416667,-0.0801114130555555,0.0123011325000002,FALSE,2.51659996,FALSE,1e-07,0,50
"mp-2573","NpAl3",0,4,2,76.3039469993573,6.91916311426818,19.0759867498393,3,221,4.24146011,90,-6.151277005,-6.151277005,-0.1051502121875,0.0126413462500005,FALSE,8.7858985,TRUE,3.579701,1,26
"mp-2574","ZrO2",3.8514,6,2,67.7243600811463,6.04261961429153,11.2873933468577,4,137,3.60016846,90,-9.46725217166667,-9.92525217166666,-3.77822615416667,0.0362397966666669,FALSE,2.98660077,FALSE,0,0,48
"mp-2576","Sr2Ge",0.3634,12,2,404.308359401577,4.07228210109774,33.6923632834647,7,62,5.18214656,90,-3.1996992325,-3.1996992325,-0.532360978611111,0,TRUE,2.6666555,FALSE,0,0,70
"mp-2577","Mn3Rh",0,4,2,46.8737938567675,9.48416751099418,11.7184484641919,3,221,3.605593,90,-8.649278575,-8.649278575,0.0633098615517226,0.152467371034483,FALSE,6.85228054,TRUE,1.9642543,3,95
"mp-2578","NiTe2",0,3,2,69.4523107047846,7.50489433913094,23.1507702349282,2,164,3.86741427,90,-4.24603867333333,-4.52737200666667,-0.505122517777778,0,TRUE,7.81585839,FALSE,3.5e-06,0,80
"mp-2579","HoPt2",0,6,2,110.741096924262,16.6471612032964,18.456849487377,3,227,5.39023827461531,59.9999942984256,-6.67790596833333,-6.67790596833333,-1.10301413166667,0.0227647966666664,FALSE,6.15350108,FALSE,1.4e-06,0,145
"mp-2580","NbB",0,4,2,46.1805008179954,7.45885204035227,11.5451252044989,7,63,3.17539516,110.667343534927,-9.1599871825,-9.1599871825,-0.769638777083333,0,TRUE,7.03086902,FALSE,9e-07,0,46
"mp-2582","TiSi2",0,6,2,83.8840625396684,4.11899848863981,13.9806770899447,7,70,4.76064195511503,104.20688163583,-6.80258921,-6.75525587666667,-0.506546517777778,0.0075055233333332,FALSE,9.01422882,FALSE,1e-07,0,36
"mp-2583","TiRh",0,4,2,58.9905662826578,8.48825980816363,14.7476415706644,4,123,3.41097137,90,-8.37127207,-8.37127207,-0.741372126666667,0,TRUE,7.11874459,FALSE,2.36e-05,0,67
"mp-2584","TbFe3",0,12,2,188.186759158044,8.64194963497361,15.682229929837,2,166,8.64984065148377,34.8036786561129,-7.56550437583333,-7.56550437583333,-0.0543969433333337,0,TRUE,4.54138901,TRUE,19.8644458,12,117
"mp-2585","Sr5Sb3",0,16,2,591.484134073246,4.51083570454625,36.9677583795778,6,193,9.57206776,90,-3.601184816875,-3.673184816875,-1.06887594354167,0,TRUE,4.01312833,FALSE,1.9276926,0,254
"mp-2588","YCo3",0,12,2,175.523003626979,7.54113556471117,14.6269169689149,2,166,8.62248525907403,33.6679974292802,-7.043999995,-7.043999995,-0.0961438704166669,0.0505541880769229,FALSE,4.51465198,TRUE,0.4639268,9,93
"mp-2589","MgO2",3.7729,12,2,112.581506248198,3.32184788119335,9.38179218734984,3,205,4.82861247,90,-5.54282616333333,-5.85282616333333,-2.02160700583333,0.014419860416666,FALSE,3.26025674,FALSE,0,0,20
"mp-2591","Ti3O",0,16,2,216.743451336003,4.89099343230703,13.5464657085002,2,163,5.13734626002053,90.0001108483712,-8.55677322625,-8.72852322625,-1.5702320359375,0,TRUE,6.72735872,FALSE,0.0002262,0,52
"mp-2592","Si2Mo",0,3,2,40.1256383057813,6.29488448345008,13.3752127685938,4,139,3.20426459315919,110.772500235439,-7.73039167666667,-7.73039167666667,-0.498296286666666,0,TRUE,10.80167203,FALSE,0,0,56
"mp-2593","AlNi3",0,4,2,43.727854385355,7.71114783966961,10.9319635963387,3,221,3.5229346,90,-5.7055919325,-5.7055919325,-0.434095465,0,TRUE,8.50778329,TRUE,0.9176515,3,69
"mp-2596","NpN",0,2,2,30.3843501243325,13.7177997759629,15.1921750621662,3,225,3.50258176188328,59.9999952936645,-11.756021145,-11.936521145,-1.294383841875,0,TRUE,13.1529128,TRUE,3.5799649,1,7
"mp-2597","InTe",0,2,2,60.732601559965,6.62814615391672,30.3663007799825,3,225,4.41210281905425,60.0000052777329,-3.236343395,-3.447343395,-0.499848583333333,0,TRUE,6.054499,FALSE,0,0,101
"mp-2598","Ta5Sb4",0,9,2,189.967923494341,12.165759478115,21.1075470549267,4,87,3.56297818679642,86.7667442938276,-8.58581981,-8.67115314333333,-0.248387242222223,0,TRUE,7.69363812,FALSE,0,0,445
"mp-2599","NdN",0,2,2,34.2820907640897,7.66517276898182,17.1410453820448,3,225,3.64637038966774,59.9999972760438,-7.906809645,-8.087309645,-1.53498846625,0,TRUE,3.75767942,FALSE,0,0,67
"mp-2600","BaTe",0.7769,2,2,77.4431096769698,5.68057810607214,38.7215548384849,3,221,4.262466,90,-4.158597765,-4.369597765,-1.83845734833333,0.16511731,FALSE,3.95608921,FALSE,0,0,108
"mp-2602","NdAs",0,2,2,55.2163271729235,6.59098021201158,27.6081635864617,3,225,4.27425922884953,60.0000054610748,-6.21688793,-6.21688793,-1.50325501125,0,TRUE,3.86052787,FALSE,1e-07,0,93
"mp-2604","MgTe2",1.2215,12,2,356.016108907163,5.21469630388058,29.668009075597,3,205,7.08744796,90,-3.20711152916667,-3.4884448625,-0.859480916944444,0,TRUE,4.74820914,FALSE,0,0,64
"mp-2605","CaO",3.6301,2,2,27.7710670036323,3.35308374867899,13.8855335018161,3,225,3.39914103370631,60.0000114985154,-6.439299835,-6.782799835,-3.306655539375,0,TRUE,2.25697064,FALSE,0,0,28
"mp-2606","BaPd5",0,6,2,116.920038825783,9.50743514029442,19.4866731376305,6,191,5.58697950000011,90,-4.97549590833333,-4.97549590833333,-0.339098576666666,0,TRUE,2.97811971,FALSE,1e-07,0,240
"mp-2607","UGe3",0,4,2,75.000676709412,10.0948552819347,18.750169177353,3,221,4.21717601,90,-6.6133471075,-6.6133471075,-0.32322371375,0,TRUE,9.60320765,TRUE,1.3170719,1,156
"mp-2610","Tb5Ge3",0,16,2,404.741225458417,8.30838733182918,25.296326591151,6,193,8.51081304,90,-5.417338445,-5.417338445,-0.787224186875,0,TRUE,4.21568563,FALSE,2.67e-05,0,324
"mp-2611","BaGe2",0,6,2,170.449721886784,5.5063740650317,28.4082869811306,4,141,4.80695604002399,107.212734811967,-4.22683141833333,-4.22683141833333,-0.505154535,0.0251019629166675,FALSE,3.68715362,FALSE,1e-06,0,88
"mp-2612","GeTe",0.4068,2,2,54.2318831226784,6.13119669740803,27.1159415613392,3,225,4.24870483487474,60,-3.95507757,-4.16607757,-0.282910695833333,0.0203087000000001,FALSE,5.80030096,FALSE,0.0004342,0,84
"mp-2613","LaCu5",0,6,2,92.7855443484506,8.17218934754156,15.4642573914084,6,191,5.1284588,90,-4.38779179,-4.38779179,-0.149118380833334,0,TRUE,7.27461253,FALSE,0,0,173
"mp-2614","HfAl3",0,4,2,68.0149108708501,6.33392456519258,17.0037277177125,4,139,3.92379132308562,112.091144704133,-5.6869951975,-5.6869951975,-0.388516067499999,0.0067824825000002,FALSE,7.22792769,FALSE,5.9e-06,0,98
"mp-2615","LaZn",0,2,2,52.9973200144701,6.40168520246006,26.4986600072351,3,221,3.75622244,90,-3.413689955,-3.413689955,-0.3158145975,0,TRUE,6.03795277,FALSE,0.000895,0,87
"mp-2616","NpO2",0,3,2,39.8701303854707,11.2034501003613,13.2900434618236,3,225,3.83460816152528,59.9999775467208,-10.75777141,-11.21577141,-3.60205237541667,0,TRUE,10.33905318,TRUE,2.9999999,1,8
"mp-2617","B2Pd5",0,14,2,174.49278323338,10.5388543411117,12.4637702309557,1,15,4.97209223663646,96.5972975361858,-5.86350388642857,-5.86350388642857,-0.255190659047619,0.0063125589285712,FALSE,5.22222431,FALSE,0,0,189
"mp-2618","DyAg2",0,3,2,63.1778221474675,9.94140502570838,21.0592740491558,4,139,3.71159377807191,110.561529537075,-3.75306083666667,-3.75306083666667,-0.329094554444445,0,TRUE,3.56244018,FALSE,0,0,113
"mp-2619","FeSb",0,4,2,70.0717022233779,8.41766452264376,17.5179255558445,6,194,4.01480687705324,90,-6.2801623975,-6.3761623975,-0.0766511725,0.0403516775000021,FALSE,8.34452909,TRUE,2.4603492,2,77
"mp-2620","DySi",0,4,2,85.9292259981116,7.36593783084812,21.4823064995279,7,63,3.81865721,112.095636253326,-5.8442352425,-5.8087352425,-0.7926828075,0,TRUE,5.39271131,FALSE,3e-06,0,80
"mp-2621","ErAg",0,2,2,45.6516605781324,10.0075103095617,22.8258302890662,3,221,3.57398062,90,-4.04651618,-4.04651618,-0.346378773333334,0,TRUE,3.78487696,FALSE,1.08e-05,0,115