"material_id","formula_pretty","band_gap","nsites","nelements","volume","density","density_atomic","crystal_symmetry","symmetry_number","sides_abc","angles_abc","uncorrected_energy_per_atom","energy_per_atom","formation_energy_per_atom","energy_above_hull","is_stable","efermi","is_magnetic","total_magnetization","num_magnetic_sites","atomic_number"
"mp-2206","LuCo2",0,6,2,87.5569004396246,11.1073206488212,14.5928167399374,3,227,4.98423964570812,59.9987981612651,-6.50814946166667,-6.50814946166667,-0.262287425,0,TRUE,4.56346379,TRUE,4.4319283,6,98
"mp-2207","NbSe2",0,6,2,142.226416084535,5.85695701811538,23.7044026807558,6,194,3.49904842,90,-6.53800381666667,-6.85267048333333,-1.1549611515625,0.001043164166667,FALSE,2.93153839,TRUE,1.8120605,2,75
"mp-2209","CeGa2",0,3,2,67.8913323721001,6.83774505989223,22.6304441240334,6,191,4.25068461,90,-4.58708067333333,-4.58708067333333,-0.590653606666666,0,TRUE,5.26957469,TRUE,1.0754182,1,89
"mp-2210","ZrCu",0,2,2,34.4126176485101,7.46823836427361,17.206308824255,3,221,3.25266425,90,-6.43115911,-6.43115911,-0.107705460000001,0.0422347842307697,FALSE,5.23613773,FALSE,0.1207538,0,69
"mp-2211","V3Pt",0,8,2,109.770618829832,10.525870438023,13.721327353729,3,223,4.78809327,90,-8.7578279825,-8.7578279825,-0.4271151,0,TRUE,6.91494203,FALSE,0.030789,0,124
"mp-2212","ScCo",0,2,2,31.0261823960422,5.5602045577381,15.5130911980211,3,221,3.1422648,90,-7.091025115,-7.091025115,-0.370631665,0,TRUE,4.95127863,TRUE,0.2330291,2,48
"mp-2213","FeNi",0,4,2,44.5655598862991,8.53553678271322,11.1413899715748,4,123,3.55275832,90,-7.1923023,-7.1923023,-0.0672233549999994,0,TRUE,6.83864477,TRUE,7.0750505,2,54
"mp-2214","TmMg2",0,12,2,299.917688777677,4.81786400648633,24.993140731473,6,194,5.96441141001048,90,-2.60594325416667,-2.60594325416667,-0.0471447463888887,0.0025595058333331,FALSE,3.15370349,TRUE,0.6221773,4,81
"mp-2215","ThHg2",0,6,2,155.845796518926,13.4938939617659,25.974299419821,6,194,4.87849922,90,-2.93720324833333,-2.93720324833333,-0.263463588333333,0,TRUE,5.29629567,FALSE,0,0,170
"mp-2216","Ce2Co17",0,38,2,485.871851495941,8.76350836808739,12.7861013551564,6,194,8.32484812934602,90,-6.91521022578947,-6.91521022578947,0.0693992913157899,0.154345481052632,FALSE,5.77961954,TRUE,1.1252352,34,58
"mp-2217","LuCd",0,2,2,48.2679080041836,9.88653570484169,24.1339540020918,3,221,3.64099005,90,-3.026234445,-3.026234445,-0.304314305,0,TRUE,3.18290101,FALSE,1.5e-06,0,119
"mp-2218","Er5Mg24",0,29,2,696.524228174048,3.38441373850144,24.0180768335879,3,217,9.67206519392727,109.47125004219,-2.14660622896552,-2.14660622896552,-0.0346988065517242,0.0114634435238545,FALSE,3.11604787,FALSE,0.002436,0,284
"mp-2221","Zr2Ag",0,3,2,63.911047912579,7.54300559155713,21.3036826375263,4,139,3.25291000661284,104.575353211505,-6.75027885333333,-6.75027885333333,-0.107626432222222,0,TRUE,4.21032925,FALSE,8e-07,0,87
"mp-2222","MnHg",0,2,2,36.9642736286249,11.4790379921286,18.4821368143125,3,221,3.331149,90,-4.400119955,-4.400119955,0.332727873534482,0.332727873534482,FALSE,4.52144759,TRUE,3.9148162,1,105
"mp-2223","GaPt2",0,24,2,358.85902788051,17.0243335136497,14.9524594950213,7,51,3.92265419,90,-5.58983383,-5.58983383,-0.533046275833333,0,TRUE,6.73225181,FALSE,0,0,109
"mp-2225","Be2Fe",0,12,2,103.296024696199,4.74995877557366,8.60800205801656,6,194,4.18834927022413,89.9999994119152,-5.593872815,-5.593872815,-0.277590501666667,0,TRUE,4.81509455,TRUE,8.3922514,4,30
"mp-2226","DyPd",0,2,2,42.311909908777,10.5538172763372,21.1559549543885,3,221,3.48461025,90,-5.788862655,-5.788862655,-0.89552833,0,TRUE,3.89571858,FALSE,4.14e-05,0,112
"mp-2228","ErMg",0,2,2,53.1799101351698,5.9815728335312,26.5899550675849,3,221,3.76053123,90,-3.150948985,-3.150948985,-0.0669495549999998,0,TRUE,3.08583047,FALSE,3.03e-05,0,80
"mp-2229","ZnO",0.7219,2,2,20.4208646564118,6.61978965258725,10.2104323282059,3,225,3.06805429918181,60,-4.40398408,-4.74748408,-1.644267919375,0.14726734,FALSE,2.44274937,FALSE,0,0,38
"mp-2231","SnS",0.9048,8,2,204.323548363838,4.90139839037615,25.5404435454798,7,62,3.95685521,90,-4.51069462125,-4.76219462125,-0.6891837603125,0,TRUE,5.56809629,FALSE,0,0,66
"mp-2232","CS2",3.4316,6,2,215.085135191811,1.17567033905451,35.8475225319684,7,64,4.71780526002717,90,-5.56321176666667,-5.8985451,-0.0646900245833326,0.225798649285711,FALSE,-2.11786231,FALSE,0,0,22
"mp-2233","Th2Ag",0,6,2,168.620648404823,11.2647637909665,28.1034414008038,4,140,5.81270541802304,76.96679790916,-5.95439561,-5.95439561,-0.0676381088888895,0.0187523116666668,FALSE,6.58620153,FALSE,7.4e-06,0,137
"mp-2234","Er2S3",1.4691,30,2,691.592054773751,6.20495066178685,23.0530684924584,1,11,3.97321134,98.6424557596497,-6.37364191966667,-6.67544191966667,-2.36648447554167,0,TRUE,3.24441903,FALSE,0,0,100
"mp-2235","YbRh2",0,6,2,101.097600520333,12.4453376278491,16.8496000867222,3,227,5.2289970107229,59.99969866903,-6.012563365,-6.012563365,-0.589822024999999,0,TRUE,4.18524024,FALSE,3e-07,0,115
"mp-2236","UIr",0,16,2,328.783504049419,17.3838439702858,20.5489690030887,1,14,10.560154,80.6194319609741,-10.5617288625,-10.5617288625,-0.496806767500001,0.0001575449999986,FALSE,10.71225797,TRUE,13.030815,8,169
"mp-2237","TeO2",0,6,2,88.8517322538151,5.96544458188885,14.8086220423025,4,136,3.418862,90,-5.15795458666667,-5.61595458666667,-1.27039348138889,0.22515736375,FALSE,6.36855916,FALSE,0,0,60
"mp-2238","Dy2C3",0,20,2,276.693609300787,8.66674019485468,13.8346804650394,3,220,7.11006630422624,109.471213591129,-7.6414534915,-7.6414534915,-0.261539460000002,0.0339155378666689,FALSE,5.30749788,FALSE,1e-07,0,78
"mp-2242","GeS",1.2376,8,2,175.698811583095,3.95829069990321,21.9623514478869,7,62,3.60314037,90,-4.6298997425,-4.8813997425,-0.5016608815625,0,TRUE,3.29336013,FALSE,0,0,48
"mp-2243","NbS",0,2,2,31.7049526945922,6.54534516092528,15.8524763472961,6,187,3.31855034318089,90,-8.003275125,-8.254775125,-1.1358976715625,0.0827920165548778,FALSE,8.33719548,FALSE,0.000507,0,57
"mp-2245","Si3N4",4.6547,28,2,292.429021330258,3.18635816625721,10.4438936189378,2,159,7.75216937893541,90.001135410272,-8.18198487285714,-8.38827058714286,-1.29942290285714,0.0001699078571437,FALSE,6.28235822,FALSE,0,0,49
"mp-2247","AgN3",1.5714,8,2,115.164318065858,4.32243913664175,14.3955397582322,7,72,5.35029686320273,119.218942314089,-6.33556835625,-6.60631835625,0.354191838333334,0.354191838333334,FALSE,1.37203993,FALSE,0,0,61
"mp-2249","HoZn",0,2,2,43.9159388010006,8.7095357602913,21.9579694005003,3,221,3.52809868,90,-3.27164524,-3.27164524,-0.350569,0,TRUE,3.01547438,FALSE,9.9e-06,0,97
"mp-2250","ZrNi2",0,6,2,82.5539884994775,8.39223856802199,13.7589980832462,3,227,4.88747193338,60.0000088812745,-7.11464296333333,-7.11464296333333,-0.411984966666668,0.0455632858333325,FALSE,6.60268026,FALSE,1e-07,0,68
"mp-2251","Li3N",0.984,4,2,43.4973790267839,1.32964511476301,10.874344756696,6,191,3.60972717,90,-3.8823583975,-3.9726083975,-0.45679251625,0,TRUE,0.3339454,FALSE,0,0,13
"mp-2252","ScB2",0,3,2,30.2916903519614,3.64968816741844,10.0972301173205,6,191,3.14541047,90,-7.40258911,-7.40258911,-0.838838227777777,0,TRUE,6.06809415,FALSE,4e-07,0,26
"mp-2254","Al2O3",4.8274,40,2,358.101626177654,3.78240525469241,8.95254065444134,7,33,4.8328134,90,-7.46447090225,-7.87667090225,-3.4104273435,0.0168870407500003,FALSE,5.64052682,FALSE,0,0,29
"mp-2258","Cu3Au",0,4,2,52.1203117056831,12.3489769756495,13.0300779264208,3,221,3.73538756,90,-3.929439755,-3.929439755,-0.0365642525000002,0,TRUE,6.13458119,FALSE,2.8e-06,0,137
"mp-2260","FePt",0,2,2,27.8134275355836,14.9811599778484,13.9067137677918,4,123,2.72800402,90,-7.502573155,-7.502573155,-0.23199589,0,TRUE,6.72760577,TRUE,3.5335297,2,104
"mp-2263","ScIr2",0,6,2,100.22070729406,14.2289700987212,16.7034512156767,3,227,5.21383718276189,60.0000000502479,-8.76401456666667,-8.76401456666667,-0.760902078333333,0.0059821416666672,FALSE,7.30010236,FALSE,0,0,98
"mp-2264","ErGe",0,4,2,87.2961524174493,9.12667169185904,21.8240381043623,7,63,3.91663532,111.684898622647,-5.448071075,-5.448071075,-0.8526977425,0,TRUE,5.01839469,FALSE,0,0,100
"mp-2265","TbCo2",0,6,2,91.9907373277925,9.9928212542618,15.3317895546321,3,227,5.06404772993584,60.0768720589001,-6.46632474333333,-6.46632474333333,-0.182657513333333,0,TRUE,4.90580337,TRUE,4.0724612,6,92
"mp-2266","YbAg",0,2,2,45.5945795196134,10.2305810283354,22.7972897598067,3,221,3.57249041,90,-2.60124977,-2.60124977,-0.415167628333333,0,TRUE,2.3927235,FALSE,2.22e-05,0,117
"mp-2267","HoB2",0,3,2,35.7083566897166,8.67520782366541,11.9027855632389,6,191,3.28325474,90,-6.57292855666667,-6.57292855666667,-0.59253108611111,0,TRUE,4.87867427,FALSE,6.5e-06,0,72
"mp-2268","TbAg",0,2,2,47.5823662725433,9.31061540643764,23.7911831362716,3,221,3.62345741,90,-4.04417791,-4.04417791,-0.310716858333334,0,TRUE,3.74741885,FALSE,3.32e-05,0,112
"mp-2269","UTe",0,2,2,58.3966177449334,10.3968536600059,29.1983088724667,3,225,4.35479347946972,60,-7.637718765,-7.848718765,-0.631360813333333,0.117207697083334,FALSE,9.50536964,TRUE,3.0325716,1,144
"mp-2271","NaPt2",0,6,2,105.667283573567,12.9853743440107,17.6112139289278,3,227,5.30662623306954,60.0000028803841,-4.85384411,-4.85384411,-0.365580132183908,0,TRUE,4.22269287,FALSE,0,0,89
"mp-2272","Sr6Li23",0,29,2,817.980327783816,1.39131956802139,28.2062181994419,3,225,10.4975021488901,59.9999817507544,-1.85913060965517,-1.85913060965517,0.0043930680459768,0.0063923392437987,FALSE,0.45764168,FALSE,0.0004595,0,193
"mp-2273","Ag3Sb",0,4,2,81.0798581231454,9.1211964882505,20.2699645307863,7,25,3.259365,90,-3.0814698225,-3.1294698225,0.0271974899999998,0.0508994350000002,FALSE,5.01811774,FALSE,0.001149,0,145
"mp-2275","UF6",2.7943,28,2,426.444341800112,5.48293684345723,15.2301550642897,7,62,5.06730082,90,-6.54391264035714,-6.93991264035714,-3.68844352392857,0,TRUE,-3.2144765,FALSE,0,0,137
"mp-2278","HgO2",0.0753000000000001,3,2,48.4028450791489,7.97934064045322,16.1342816930496,1,12,3.56952821954751,68.6706524319957,-3.33616248333333,-3.44349581666667,-0.0444765541666664,0.381316422916664,FALSE,1.3800802,FALSE,0.0003709,0,88
"mp-2279","PuSn3",0,4,2,96.5464221007898,10.32186681137,24.1366055251974,3,221,4.587528,90,-6.432350165,-6.432350165,0.14178830875,0.44108744625,FALSE,10.55396077,TRUE,0.5687411,1,100
"mp-2280","CuSe2",0,12,2,230.833727479613,6.37260332688802,19.2361439566344,3,205,6.13431878025162,89.9999817862581,-3.77615464916667,-4.09082131583333,-0.393811440729166,0.0040995874999989,FALSE,4.84088821,FALSE,0,0,63
"mp-2281","SmSb",0,2,2,63.2309365308258,7.14627863503022,31.6154682654129,3,225,4.47179124245752,60.0000078859315,-5.59475174,-5.69075174,-1.2669580525,0,TRUE,4.97135815,FALSE,2e-07,0,113
"mp-2282","NiS2",0,12,2,183.996447230968,4.43384765438693,15.3330372692473,3,205,5.68771469073335,89.9951503821564,-4.9260092075,-5.26134254083333,-0.576997069583333,0.0151613658333333,FALSE,7.86163695,TRUE,1.48e-05,4,44
"mp-2283","ZrCo",0,2,2,33.0077041523646,7.55405123838982,16.5038520761823,3,221,3.20778392,90,-8.119693995,-8.119693995,-0.291684782500001,0,TRUE,4.95838169,TRUE,1.0016962,2,67
"mp-2284","AgF2",0,12,2,166.011252692827,5.83609936430591,13.8342710577356,7,61,5.1502971403914,89.999986975816,-3.34126321333333,-3.64926321333333,-1.43075856722222,0.0093179183333336,FALSE,-1.1013139,TRUE,0,4,56
"mp-2285","Te2Ir",0,3,2,74.9008583933565,9.9191574502285,24.9669527977855,2,164,3.96318417,90,-5.31458618333333,-5.59591951666667,-0.554237527777777,0.0264790416666675,FALSE,7.34226481,FALSE,0,0,129
"mp-2286","Li2Se",2.96,3,2,52.7166925965364,2.92445827740351,17.5722308655121,3,225,4.20876216412688,60.000001536312,-3.69838572666667,-3.85571906,-1.41779998967014,0,TRUE,0.34245106,FALSE,0,0,37
"mp-2287","SiRh",0,8,2,105.918672787671,8.21444102907297,13.2398340984589,1,14,4.56750587,113.600675253169,-7.193255065,-7.157755065,-0.762942115,0.0174408112500126,FALSE,9.48399474,FALSE,0,0,59
"mp-2288","PuSe",0,2,2,50.9537827927877,10.5249829856606,25.4768913963939,3,225,4.16131418517034,59.9999915640153,-10.442325465,-10.678325465,-1.79645056117188,0,TRUE,8.73552539,TRUE,5.8194854,1,34
"mp-2289","CeAl4",0,5,2,102.564298434702,4.01585828432353,20.5128596869404,4,139,4.27306731169286,109.570824809327,-4.478770808,-4.478770808,-0.295692313,0.0357075526666665,FALSE,7.35902881,TRUE,0.9654975,1,97
"mp-2290","NdRh2",0,6,2,110.156212256979,10.5536795423665,18.3593687094965,3,227,5.38073269901693,59.9999921725539,-7.15369440166667,-7.15369440166667,-0.654773344166667,0,TRUE,5.4807088,FALSE,1.9e-06,0,105
"mp-2291","Si2Ni",0,3,2,39.0673598665429,4.88225526918484,13.0224532888476,3,225,3.80869593469512,59.9999997192007,-5.89628718,-5.89628718,-0.352696266666668,0,TRUE,10.02070622,FALSE,4e-06,0,42
"mp-2292","La2O3",3.5319,40,2,733.047676943075,5.90432324927604,18.3261919235769,3,206,9.83825417509236,109.471218533597,-8.40512254125,-8.81732254125,-3.8749064725,0,TRUE,4.68384387,FALSE,0,0,73
"mp-2293","MnSe",0.0484,2,2,51.8970465259179,4.2843080588955,25.948523262959,3,216,4.18683553445906,59.9999877463702,-6.68190506,-6.91790506,-0.588941675137392,0.0043245799999969,FALSE,2.65298369,TRUE,5.0000003,1,59
"mp-2294","Al3Ir",0,8,2,122.235277914639,7.42167960461037,15.2794097393299,6,194,4.27012569,90,-5.683440905,-5.683440905,-0.6646504875,0,TRUE,9.22982461,FALSE,0,0,103
"mp-2295","CaNi2",0,6,2,90.4388259236001,5.78239377488697,15.0731376539334,3,227,5.03832305057859,60.0016551861108,-4.711105055,-4.711105055,-0.189147308333334,0,TRUE,5.83747408,TRUE,0.8651801,4,48
"mp-2296","Ni3P",0,16,2,169.857487156521,8.09669796842068,10.6160929472826,4,82,4.32420117292172,83.9129579027632,-6.12908206625,-6.12908206625,-0.440653929583332,0,TRUE,9.56118466,FALSE,1e-07,0,71
"mp-2297","NdC2",0,3,2,47.627210884289,5.86656123655379,15.8757369614297,4,139,3.84141211952556,117.08493762799,-7.86117429666667,-7.86117429666667,-0.1193481575,0.0191727887499988,FALSE,4.16190565,FALSE,1e-07,0,66
"mp-2301","NiP3",0,16,2,236.234403475078,4.26292031084036,14.7646502171924,3,204,6.74510905452081,109.471121536287,-5.807673630625,-5.807673630625,-0.302662580624999,0,TRUE,8.2089381,FALSE,6.6e-06,0,58
"mp-2302","AsRh2",0,3,2,46.2371045013861,10.0821073160889,15.4123681671287,3,225,4.02873390270522,59.9999824047238,-6.92303838666667,-6.92303838666667,-0.460460338333333,0,TRUE,6.85760104,FALSE,1e-07,0,78
"mp-2303","DyZn",0,2,2,44.5503509445097,8.49492293789392,22.2751754722548,3,221,3.54500656,90,-3.27995347,-3.27995347,-0.346688245,0,TRUE,3.08921885,FALSE,3.6e-06,0,96
"mp-2305","MoC",0,2,2,20.7118157523168,8.65478704332165,10.3559078761584,6,187,2.91199162,90,-10.120074045,-10.120074045,-0.0829162437500006,0.0014955031249979,FALSE,8.99072525,FALSE,0,0,48
"mp-2306","LaMg3",0,8,2,208.893952984677,3.3676050504571,26.1117441230847,3,225,5.28088015,90,-2.5667277575,-2.5667277575,-0.13251594375,0,TRUE,4.33331321,FALSE,1e-06,0,81
"mp-2309","Tm2S3",1.1832,20,2,441.843575550593,6.52519856506975,22.0921787775296,1,11,3.8706667,108.928901896606,-6.3226353225,-6.6244353225,-2.35223123304167,0.0257944127499989,FALSE,3.55772288,FALSE,0,0,101
"mp-2310","CdO2",1.2535,12,2,157.877003716395,6.07556791312451,13.1564169763663,3,205,5.404717,90,-4.14984410833333,-4.45984410833333,-0.854421714166666,0.0558100920833339,FALSE,1.97427362,FALSE,0.0006841,0,56
"mp-2311","NbO",0,6,2,76.7573069773292,7.06808156995234,12.7928844962215,3,221,4.24984649,90,-9.46879395333333,-9.81229395333333,-2.28829707770833,0,TRUE,6.20311821,FALSE,0,0,49
"mp-2314","LiPb",0,2,2,43.8473507088742,8.10971450981697,21.9236753544371,3,221,3.52626099,90,-3.08266373,-3.08266373,-0.271878761666667,0,TRUE,4.96732259,FALSE,1.7e-06,0,85
"mp-2315","NaB15",0,32,2,252.409896344105,2.43617015188343,7.88780926075327,7,74,5.83707986416239,71.0371563053423,-6.3946468009375,-6.3946468009375,-0.0500591849407321,0,TRUE,5.19894855,FALSE,0,0,11
"mp-2316","TmZn",0,2,2,42.6451357805469,9.12498103417827,21.3225678902735,3,221,3.49373398,90,-3.22542274,-3.22542274,-0.357633223333333,0,TRUE,3.05462803,FALSE,0,0,99
"mp-2317","LaNi5",0,6,2,83.5251415748889,8.59587142529536,13.9208569291481,6,191,4.94644358003029,90,-5.921158305,-5.921158305,-0.2817098875,0,TRUE,8.42713528,TRUE,1.7307005,5,169
"mp-2318","Nb2C",0,3,2,42.8836259889703,7.66011679386605,14.2945419963234,2,164,3.14837275,90,-10.2583425,-10.2583425,-0.447917309166667,0.0181142233333346,FALSE,5.56328921,FALSE,3e-07,0,47
"mp-2319","P2Os",0.8903,6,2,88.6496692143049,9.44731399523119,14.7749448690508,7,58,2.94564109,90,-7.87211903,-7.87211903,-0.520794882222223,0,TRUE,7.98658127,FALSE,0,0,91
"mp-2321","Tb3Ge5",0,16,2,343.725907069349,8.11584473178476,21.4828691918343,7,43,5.76460170046476,82.9978523078887,-5.34986688125,-5.34986688125,-0.722587184375,0.0012938312499999,FALSE,5.41531637,FALSE,1e-07,0,258
"mp-2322","YAl2",0,6,2,120.882099956576,3.92513755310429,20.1470166594293,3,227,5.54999381462565,59.9999776963813,-5.183877645,-5.183877645,-0.531336720555556,0,TRUE,5.88468752,FALSE,3e-07,0,52
"mp-2323","BeCu",0,2,2,19.0869916085843,6.31245081903241,9.54349580429216,3,221,2.67246788,90,-4.019554075,-4.019554075,-0.100244307500001,0.0050363424999995,FALSE,8.65083388,FALSE,0,0,33
"mp-2324","PrCd2",0,3,2,78.170868806632,7.76898582438962,26.0569562688773,6,191,5.06234078,90,-2.54998924666667,-2.54998924666667,-0.341094155,0,TRUE,3.02935139,FALSE,0.002071,0,107
"mp-2327","TiZn16",0,34,2,493.11389498091,7.37076054402047,14.5033498523797,7,63,6.79545667667489,90,-1.71438890647059,-1.71438890647059,-0.0643071549019609,0,TRUE,3.31243208,FALSE,0,0,22
"mp-2330","Nb2Se3",0,10,2,208.126846346095,6.74490440297922,20.8126846346095,1,11,3.47956188,104.074605057374,-6.978912629,-7.262112629,-1.12404372640625,0.0166433717500007,FALSE,5.00138731,FALSE,1e-07,0,109
"mp-2331","B2Mo",0,6,2,54.7780805404298,7.12753319655101,9.12968009007164,2,166,7.17355865604841,24.2602898783052,-8.499865505,-8.499865505,-0.431720954444444,0,TRUE,8.91057059,FALSE,0,0,47
"mp-2332","Ho2C3",0,20,2,271.668442120077,8.94589278333283,13.5834221060038,3,220,7.06676053979966,109.471226921754,-7.6366036215,-7.6366036215,-0.266440777999999,0.0488674197600005,FALSE,5.23093956,FALSE,3.1e-06,0,79
"mp-2333","NdPd3",0,4,2,72.5010621247208,10.6158883179285,18.1252655311802,3,221,4.16979582,90,-5.867924275,-5.867924275,-0.790976059375,0,TRUE,5.02900124,FALSE,6e-06,0,152
"mp-2334","DyCu",0,2,2,40.5684947314205,9.25245603352266,20.2842473657102,3,221,3.43607761,90,-4.601228995,-4.601228995,-0.24823224,0,TRUE,4.79898684,FALSE,4e-07,0,95
"mp-2336","PrAl4",0,5,2,103.402827515672,3.99600536295081,20.6805655031344,4,139,4.26675531785427,109.372694829859,-4.267676294,-4.267676294,-0.315034479,0.0368024419999999,FALSE,6.29560419,FALSE,1e-07,0,98
"mp-2337","HfCo2",0,6,2,81.4630040445857,12.0818368780559,13.5771673407643,3,227,4.86584039104886,60.0001180741515,-8.42713895833333,-8.42713895833333,-0.369197418333335,0,TRUE,5.62638108,TRUE,4.0638174,6,99
"mp-2338","TbZn2",0,6,2,118.221087525794,8.1394979868982,19.7035145876323,7,74,4.45477182775402,78.3089177625452,-2.77697107833333,-2.77697107833333,-0.392353305,0,TRUE,3.08372418,FALSE,0,0,95
"mp-2339","Ti3Pt",0,8,2,126.942243547201,8.86071741062783,15.8677804434001,3,223,5.0257636,90,-8.0859607025,-8.0859607025,-0.646558359999999,0,TRUE,6.52322759,FALSE,3.55e-05,0,122
"mp-2340","Na2O2",1.7361,12,2,144.248856067795,2.69297270821859,12.0207380056496,6,189,6.13536778,90,-4.21043728666667,-4.44293728666667,-1.30833028431753,0,TRUE,1.8331549,FALSE,0,0,19
"mp-2341","Li3N",1.2016,8,2,67.3230952829203,1.71816454026382,8.41538691036504,6,194,3.52407593,90,-3.8709418675,-3.9611918675,-0.44537598625,0.0114165299999999,FALSE,1.37832282,FALSE,0,0,13
"mp-2343","Mg2Sn",0,3,2,77.2394796051125,3.59714226512113,25.7464932017042,3,225,4.78025918987568,59.9999903470507,-2.59060274,-2.59060274,-0.187225421666667,0,TRUE,4.52240683,FALSE,2e-07,0,62
"mp-2345","Dy2O3",3.9255,40,2,594.558372549091,8.33395826506963,14.8639593137273,3,206,9.17498664897313,109.471220227664,-8.408972594,-8.821172594,-4.01044463125,0,TRUE,1.43195201,FALSE,0,0,82