"material_id","formula_pretty","band_gap","nsites","nelements","volume","density","density_atomic","crystal_symmetry","symmetry_number","sides_abc","angles_abc","uncorrected_energy_per_atom","energy_per_atom","formation_energy_per_atom","energy_above_hull","is_stable","efermi","is_magnetic","total_magnetization","num_magnetic_sites","atomic_number"
"mp-4266","KAsF6",4.9494,8,3,110.019677392818,3.44138477399544,13.7524596741023,2,148,4.84423077382503,97.9890770874479,-4.553756045,-4.900256045,-2.745457150375,0.00013530875,FALSE,-3.17906679,FALSE,0,0,97
"mp-4271","EuTaO4",0,12,3,153.519077953618,8.58634257356623,12.7932564961348,1,15,6.57824061832436,69.6132200471358,-9.87729764666667,-10.3352976466667,-3.35170860083333,0.0077411908333342,FALSE,1.70181954,TRUE,12.0000001,2,160
"mp-4274","SrTeO4",2.2486,24,3,369.735310354193,5.01603952771652,15.4056379314247,7,60,5.02393487,90,-5.92007330041667,-6.37807330041667,-2.27481426847222,0,TRUE,2.07390157,FALSE,0,0,114
"mp-4275","Sm(SiPd)2",0,5,3,87.0400798773131,8.0007041569894,17.4080159754626,4,139,4.19011672392611,111.269322778963,-6.137981622,-6.109581622,-0.923784459000001,0,TRUE,5.82225452,FALSE,0,0,122
"mp-4276","NaSi2Pd3",0,12,3,196.646916240786,6.72874271289536,16.3872430200655,7,44,5.70868993945152,63.8916722982308,-5.2399113075,-5.2399113075,-0.621110176925287,0,TRUE,5.15923969,FALSE,2e-07,0,117
"mp-4279","CaGe2O5",2.6966,32,3,348.678749188991,5.05488040257723,10.896210912156,7,55,5.73313539,90,-6.5773823409375,-7.0067573409375,-2.50861994765625,0.0053489068125003,FALSE,3.38726056,FALSE,0,0,84
"mp-4280","GaCuO2",0.7287,4,3,43.7914016360515,6.26683842257076,10.9478504090129,2,166,5.98020361863228,28.7653298445615,-5.587307345,-5.930807345,-1.67563731625,1.63599999893904e-05,FALSE,4.14111665,FALSE,0,0,68
"mp-4283","LaSi2Pt",0,8,3,157.209509394164,8.24220755060848,19.6511886742705,7,63,4.27334817,104.420619042408,-6.5009584375,-6.5009584375,-1.03651431625,0,TRUE,8.76492351,FALSE,1e-07,0,149
"mp-4284","Ho2CdSe4",0.6037,14,3,399.151376560393,6.30775224132904,28.5108126114566,3,227,8.26450705254824,59.999988763773,-4.94650317928571,-5.216217465,-1.77745269205357,0.0113209428571439,FALSE,1.54418235,FALSE,0,0,217
"mp-4287","Sr2SnO4",2.6531,28,3,418.385610204385,5.68266172735098,14.9423432215852,4,138,5.77743647,90,-6.27645676428571,-6.66902819285714,-2.7868405347619,0,TRUE,2.94036817,FALSE,0,0,112
"mp-4288","TbNiGe2",0,8,3,140.694569205321,8.56618069907018,17.5868211506651,7,63,4.11851572,103.897161145447,-5.6263543025,-5.6263543025,-0.71121468,0,TRUE,6.46023542,FALSE,1e-07,0,125
"mp-4289","Er2Si3Rh",0,24,3,443.337846050057,7.81589054922306,18.4724102520857,6,194,8.09910675076321,89.9999841853854,-6.38894672916667,-6.38894672916667,-0.926330132500001,0,TRUE,6.19366125,FALSE,3e-07,0,141
"mp-4291","Ho(NiGe)2",0,5,3,78.5584096019902,9.03839227554398,15.711681920398,4,139,4.02482772785626,110.970908370057,-5.76245392,-5.76245392,-0.684706332,0,TRUE,6.45788933,FALSE,5e-07,0,127
"mp-4297","U(GePd)2",0,5,3,92.2570776198459,10.73010960357,18.4514155239692,4,139,6.06520769875971,139.762464998589,-6.63525435,-6.63525435,-0.455808481999999,0.0112045423999989,FALSE,7.75326241,TRUE,2.465101,1,170
"mp-4298","Tm(MnSn)6",0,13,3,254.62180476051,7.89648801935336,19.5862926738854,6,191,5.67040500032083,90,-6.55805310076923,-6.55805310076923,-0.134564000327144,0,TRUE,8.24521677,TRUE,20.9550972,7,344
"mp-4299","HoInPd",0,9,3,193.045053520467,9.96525272130792,21.449450391163,6,189,7.67397321,90,-4.98723970666667,-4.98723970666667,-0.815914903333333,0,TRUE,5.79454414,FALSE,5e-07,0,162
"mp-4300","Yb2Si2O7",0,11,3,153.011939490091,5.58078607538554,13.910176317281,1,12,5.77562432239667,82.7681545232944,-7.07376372090909,-7.51094553909091,-3.09670248465909,0.0233417255681827,FALSE,0.32930531,TRUE,2.014563,7,132
"mp-4302","Nd(NiGe)2",0,5,3,83.2848059482765,8.11297992773085,16.6569611896553,4,139,4.12637869550843,111.238402057363,-5.808106466,-5.808106466,-0.6932111655,0,TRUE,6.29654096,FALSE,3.6e-06,0,120
"mp-4304","SmSnAu",0,6,3,146.236206586013,10.5838621960363,24.3727010976689,6,186,4.71823209,90,-4.83755302166667,-4.83755302166667,-0.836873025,0.0189009883333328,FALSE,6.16096146,FALSE,2e-07,0,191
"mp-4305","Er(CuSi)2",0,5,3,76.2969080953155,7.62882126200475,15.2593816190631,4,139,3.91891657343358,110.148759950874,-5.304264906,-5.275864906,-0.552511264,0,TRUE,7.38590612,FALSE,1e-07,0,111
"mp-4307","BaIrO3",0,30,3,426.1880020632,8.826014378938,14.20626673544,1,15,5.79428227785772,89.0506326149964,-6.683996429,-7.096196429,-1.97670137825,0.0471774166249998,FALSE,4.41822187,TRUE,1.6631362,2,149
"mp-4308","PrAgAs2",0,16,3,356.489042656242,7.42712875867281,22.2805651660152,7,62,4.04684578,90,-5.00584157375,-5.00584157375,-0.772916931666667,0,TRUE,4.66196894,FALSE,4e-07,0,139
"mp-4309","BaGa4S7",2.58,24,3,556.294531814462,3.82482352463502,23.1789388256026,7,31,5.97088255,90,-4.54797985833333,-4.841396525,-1.25918751682292,0,TRUE,2.06512571,FALSE,0,0,245
"mp-4311","HoAgSn",0,6,3,140.46732374968,9.25646157429876,23.4112206249466,6,186,4.68722679,90,-4.38984961833333,-4.38984961833333,-0.581670708888889,0,TRUE,5.73213168,FALSE,0,0,164
"mp-4316","Sr(NiAs)2",0,5,3,91.1797547235719,6.46242457626044,18.2359509447144,4,139,4.07325549739088,109.162207566206,-5.17629417,-5.17629417,-0.662693445333333,0,TRUE,5.83596736,FALSE,1e-07,0,99
"mp-4320","CuTeO3",0,40,3,595.149562376558,5.33792931060981,14.8787390594139,7,62,6.016914,90,-5.23438909225,-5.64658909225,-1.23007335283333,0.0446295899999871,FALSE,4.09068429,FALSE,0.0001421,0,97
"mp-4321","MgSiO3",4.5306,20,3,201.481541649047,3.30947156411092,10.0740770824523,1,15,6.43502635668994,81.0267801914878,-7.1795026075,-7.5917026075,-3.21856976475,0.0175747644999981,FALSE,3.52659638,FALSE,0,0,42
"mp-4322","Pr(CoB)2",0,5,3,64.2824320109419,7.24316992954906,12.8564864021884,4,139,3.57305274453845,108.489202065642,-6.94466112,-6.94466112,-0.473396142666667,0,TRUE,5.12508958,FALSE,2.2e-06,0,91
"mp-4323","Nd(SiPd)2",0,5,3,88.5197043965853,7.75220337175145,17.7039408793171,4,139,4.22093685900796,111.353673524549,-6.139964894,-6.111564894,-0.915855471499999,0,TRUE,6.01614351,FALSE,2.8e-06,0,120
"mp-4324","Tm2CdS4",1.1785,14,3,343.297096459299,5.59682746161533,24.5212211756642,3,227,7.85950258193524,59.9999989068526,-5.44819819714286,-5.73562676857143,-1.96128961511905,0,TRUE,1.87041213,FALSE,0,0,165
"mp-4325","Zr(SO4)2",3.5328,44,3,513.392056005611,3.66591115375353,11.6680012728548,7,62,5.45387804,90,-6.98149284977273,-7.48112921340909,-2.35439193579545,0,TRUE,1.31159499,FALSE,0,0,80
"mp-4326","KErS2",2.3727,4,3,100.963230181739,4.44869610313234,25.2408075454346,2,166,7.66243672179173,30.2163412661653,-5.368706635,-5.620206635,-2.1324522623125,0,TRUE,1.78888375,FALSE,0,0,103
"mp-4334","Sm(CoGe)2",0,5,3,79.7960051311239,8.60498609868271,15.9592010262248,4,139,3.96174888312003,109.953132179024,-6.242922568,-6.242922568,-0.606667081000001,0,TRUE,5.80800379,FALSE,0.0008913,0,121
"mp-4336","LaPPd",0,6,3,126.56939051058,7.24986771219736,21.09489841843,6,194,4.28034816,90,-6.48570250666667,-6.48570250666667,-1.30930536611111,0,TRUE,8.34205273,FALSE,0,0,118
"mp-4337","Dy(GeRh)2",0,5,3,86.6673055595456,9.84036499401969,17.3334611119091,4,139,5.90875901560642,139.364591930457,-6.597093572,-6.597093572,-0.880801914,0,TRUE,6.39333073,FALSE,1.8e-06,0,143
"mp-4338","Cr2CdS4",0,14,3,272.231142326872,4.20471150748924,19.4450815947766,3,227,7.27474810294749,59.9998890059585,-5.95523741071429,-6.24266598214286,-0.989125386785714,0,TRUE,4.08277325,TRUE,11.9999995,4,120
"mp-4340","TbPO4",5.8675,12,3,144.162324591867,5.84903733136771,12.0135270493222,4,141,5.74327170348467,106.070000873546,-8.01646913166667,-8.47446913166667,-3.50206522305555,0,TRUE,2.07505313,FALSE,3e-07,0,104
"mp-4341","Pr(P3Ru)4",0,17,3,262.986779895965,5.78927615350847,15.4698105821156,3,204,6.99066680208716,109.471220634491,-6.94068621117647,-6.94068621117647,-0.656089387941176,0,TRUE,7.86792082,FALSE,9e-07,0,221
"mp-4342","KNbO3",1.476,5,3,66.1919330077023,4.51568341878958,13.2383866015405,4,99,4.01297268,90,-7.65310477,-8.06530477,-2.85495074585,0.0021344659999993,FALSE,1.31004182,FALSE,1e-07,0,76
"mp-4343","Sr(MnAs)2",0,5,3,105.788644086486,5.45210183371455,21.1577288172972,2,164,4.07630998813498,90,-6.31453452,-6.31453452,-0.448182350505747,0.0903263744137943,FALSE,4.04957317,TRUE,5.8865028,2,96
"mp-4344","HoTaO4",4.0508,12,3,145.378734080384,9.36333340167339,12.1148945066987,1,15,5.05083264076847,111.87127597457,-9.31660776166667,-9.77460776166667,-3.73678420416667,0.0043858316666653,FALSE,2.2336902,FALSE,0,0,164
"mp-4346","SrRuO3",0,5,3,63.3911410469964,6.20007774291131,12.6782282093993,3,221,3.987275,90,-6.899215368,-7.311415368,-2.15062294258333,0.0413389979999943,FALSE,4.76897774,TRUE,2.0018387,1,98
"mp-4350","La2(SeO3)3",3.512,56,3,859.428762326722,5.09069800649146,15.3469421844058,7,62,7.09207981,90,-6.53478376607143,-6.97642662321429,-2.34214469148438,0,TRUE,3.1455797,FALSE,0,0,107
"mp-4351","K2B2S7",2.5194,22,3,505.660477321904,2.12976495184626,22.9845671509956,1,15,8.19823359761553,60.383709815687,-4.70537209181818,-5.02546300090909,-0.976851136928031,0,TRUE,1.69905014,FALSE,0,0,120
"mp-4353","TbAl4Ni",0,12,3,204.080719162165,5.29770802364932,17.0067265968471,7,63,4.05239008979556,90,-4.789265585,-4.789265585,-0.556464568333334,0,TRUE,6.92564657,FALSE,1e-07,0,132
"mp-4354","Tl(NiSe)2",0,5,3,101.900962009787,7.81684623188106,20.3801924019575,4,139,7.27059337628959,148.956925804473,-4.45056835,-4.63936835,-0.456420457604167,0.022319451233332,FALSE,5.62739199,FALSE,0.0082661,0,143
"mp-4355","YTiO3",0,20,3,235.49787086692,5.21141946247295,11.774893543346,7,62,5.347706,90,-9.0402741755,-9.4524741755,-3.61206832275,0.057953292750005,FALSE,6.78977531,TRUE,4.0079207,4,77
"mp-4356","CaSiO3",3.5299,20,3,187.989360397809,4.10429697690311,9.39946801989045,3,204,6.25055220822065,109.471220634491,-7.247103525,-7.659303525,-3.20510671625,0.243690598666667,FALSE,6.41174094,FALSE,0,0,50
"mp-4359","Sr2PdO3",0.2353,6,3,90.8117796468147,6.02796599575545,15.1352966078024,7,71,3.53986738858226,106.769755774397,-5.952395815,-6.295895815,-2.39607333993056,0,TRUE,3.05120574,FALSE,0,0,100
"mp-4360","NaCdF3",3.482,10,3,141.761410016039,4.50730617240392,14.1761410016039,2,161,5.9876160538673,57.132391828419,-3.992407992,-4.269607992,-2.67363760081034,0,TRUE,-2.26837336,FALSE,0,0,77
"mp-4361","K4Ta2S11",1.5679,68,3,1774.98037111282,3.2593850079289,26.1026525163651,7,29,7.42910982,90,-5.25780033044118,-5.58327091867647,-1.25044153140441,0.0127711477941154,FALSE,1.57221353,FALSE,1.42e-05,0,130
"mp-4362","Cu2Ag2O3",0,14,3,193.016123077265,6.72464897978144,13.7868659340904,4,141,6.84254194931109,128.044266321105,-4.46858385928571,-4.76301243071429,-0.662499362083333,0.0227851969047634,FALSE,3.05043119,TRUE,0.1676422,1,92
"mp-4363","Ca3Sn13Rh4",0,40,3,929.625393027222,7.41322557537717,23.2406348256805,3,223,9.75969022000064,89.9999491601196,-4.8829568825,-4.8829568825,-0.50303362075,0,TRUE,7.48134851,FALSE,1.2e-06,0,175
"mp-4364","NbGaCo2",0,4,3,52.3803906436467,8.89214796563459,13.0950976609117,3,225,4.19979365017467,59.9999994049416,-7.1596747,-7.1596747,-0.323165536875001,0,TRUE,5.75555877,TRUE,2.0004925,2,99
"mp-4366","Na2PtC2",0.3829,5,3,93.9851365948884,4.68354797784144,18.7970273189777,2,164,4.55703468423853,90,-5.486982656,-5.486982656,-0.0522796776206895,0.0573943620344827,FALSE,1.46579941,FALSE,0,0,95
"mp-4367","Cu2NiSn",0,4,3,55.3752279734982,9.1309151366741,13.8438069933745,3,225,4.27835523642346,60,-4.455431785,-4.455431785,0.0415986837500002,0.161916670982142,FALSE,9.49163184,FALSE,2.27e-05,0,107
"mp-4368","SbPdSe",0,12,3,260.84479606136,7.82101811677392,21.7370663384467,3,198,6.38943393019919,90.0009111711151,-4.68534955666667,-4.90668289,-0.638418047447916,0,TRUE,5.65156901,FALSE,3e-07,0,131
"mp-4370","Sr(AsPd)2",0,5,3,99.7039701079712,7.49966179486379,19.9407940215942,4,139,4.39805502074769,111.425106775106,-5.048355796,-5.048355796,-0.774857019333334,0,TRUE,5.07791555,FALSE,3e-07,0,117
"mp-4371","Nd(CuO2)2",0,14,3,162.052849235721,6.87221760915197,11.5752035168372,4,88,5.7447375581831,116.93578784581,-6.31091760142857,-6.70348903,-2.02444394178571,0,TRUE,4.1778287,TRUE,1.9943977,4,97
"mp-4374","UAsS",0,6,3,127.795811727091,8.96604865519975,21.2993019545152,4,129,3.90394057,90,-7.82916952166667,-7.99683618833333,-1.30117676104167,0,TRUE,9.40834927,TRUE,5.2062165,2,141
"mp-4376","BaAlF5",7.2887,28,3,376.523338234743,4.57425776498245,13.4472620798122,7,19,4.87478029,90,-5.89032077035714,-6.22032077035714,-4.04575711214286,0,TRUE,-1.0577164,FALSE,0,0,105
"mp-4377","K2TbF6",0,18,3,277.637734145371,4.19997524916989,15.4243185636317,1,15,6.49219845281912,88.9005937331776,-5.09809806222222,-5.40609806222222,-3.37009386233333,0.0167395537962953,FALSE,-2.77505616,TRUE,1.9999984,8,129
"mp-4382","YB2Ru3",0,6,3,78.6001967660317,8.74079062805858,13.1000327943386,6,191,5.47888596,90,-8.40919170333333,-8.40919170333333,-0.467781324166667,0,TRUE,6.58740301,FALSE,1e-06,0,132
"mp-4383","Nd2Fe17N3",0,22,3,276.54963295371,7.68495918069042,12.5704378615323,2,166,6.55316785517455,83.6191905269844,-8.31049264,-8.35971991272727,-0.244440812272727,0.0634161429545461,FALSE,5.24181439,TRUE,38.2407608,19,74
"mp-4384","Nb2CS2",0,5,3,84.1549136768122,5.16884796093486,16.8309827353624,2,166,9.09605482862769,20.9374768437165,-8.394158406,-8.595358406,-1.05452334475,0.0165006371250022,FALSE,4.53831738,FALSE,0,0,63
"mp-4385","CdCO3",2.6226,10,3,115.529027204314,4.95650291078665,11.5529027204314,2,167,6.14512727807471,47.5243609311407,-6.349738697,-6.761938697,-1.76361441975,0,TRUE,0.99032799,FALSE,0,0,70
"mp-4386","Cu2SO5",0,16,3,188.951594193834,4.20345286450741,11.8094746371146,1,12,5.62190897310784,63.84394588601,-5.559266148125,-5.988641148125,-1.35510280273438,0.013340027500015,FALSE,2.51508011,TRUE,4.0128048,6,77
"mp-4387","SrZrO3",3.735,20,3,278.219966031218,5.4155758902109,13.9109983015609,7,62,5.79524115,90,-8.2662611755,-8.6784611755,-3.66300913208333,0,TRUE,2.06125108,FALSE,0,0,94
"mp-4391","MgSiO3",4.6413,10,3,84.1979956765026,3.95969896565385,8.41979956765026,7,63,2.716358,90,-6.937652831,-7.349852831,-2.97671998825,0.259424540999998,FALSE,6.39504537,FALSE,0,0,42
"mp-4393","Cs4U5O17",1.5343,104,3,2087.14118382171,6.34496605142341,20.0686652290549,7,60,7.119511,90,-8.43554022634615,-8.88473253403846,-3.34117993290285,0,TRUE,3.48613355,FALSE,0.1776787,0,533
"mp-4394","Pr2Sn2O7",2.6358,22,3,303.657833465734,6.90371718483049,13.802628793897,3,227,7.54454689438565,60,-7.26772482363636,-7.70490664181818,-2.95874516920455,0,TRUE,3.84816028,FALSE,0,0,157
"mp-4395","TbScGe",0,6,3,139.964180721745,6.56131241477262,23.3273634536242,4,139,4.24039352222087,104.73368185467,-5.92533107666667,-5.92533107666667,-0.728710056666667,0.0010274887777779,FALSE,4.49063113,TRUE,1.766425,4,118
"mp-4396","Ba(NO3)2",3.6327,36,3,541.969228302911,3.20283841427017,15.054700786192,3,205,8.15313956,90,-6.49698729,-6.95498729,-1.59142095027778,0,TRUE,-0.95854967,FALSE,0,0,79
"mp-4400","Si2N2O",5.1798,30,3,244.484285126194,4.08269464815473,8.14947617087313,1,15,4.70777431968122,89.9167055617335,-7.76072228733333,-8.04252228733333,-1.54845936308333,0.371330204666666,FALSE,9.19150411,FALSE,0.0040702,0,29
"mp-4402","La(CoP)2",0,5,3,79.5376140139577,6.65403400612209,15.9075228027915,4,139,3.80037814843259,108.036031156587,-6.997233092,-6.997233092,-1.00138355033333,0,TRUE,8.67776326,TRUE,1.3211518,2,99
"mp-4404","Sr(AsRu)2",0,5,3,99.3539270219022,7.34725148047195,19.8707854043804,4,139,4.17481034942293,108.975635715865,-6.589305062,-6.589305062,-0.677997993333333,0,TRUE,5.55440292,FALSE,1e-07,0,115
"mp-4405","Rb3AuO",0.1979,5,3,167.222975267302,4.66087971849578,33.4445950534605,3,221,5.50932825,90,-2.911304132,-3.048704132,-0.81626954625,0,TRUE,1.02210109,FALSE,0,0,161
"mp-4406","CaSO4",5.9508,12,3,151.788041146144,2.97871667811699,12.6490034288454,7,63,4.6713649834856,90,-6.53340933583333,-6.99140933583333,-2.66994190385417,0,TRUE,1.34146104,FALSE,0,0,60
"mp-4408","Sm2Zr2O7",3.0741,22,3,299.713969075351,6.59490609646987,13.6233622306978,3,227,7.51174196220684,60,-8.97926705954545,-9.41644887772727,-3.85650392238636,0,TRUE,2.19194818,FALSE,0,0,150
"mp-4409","Cu(RhO2)2",0,14,3,160.353014851834,6.90412134554868,11.453786775131,3,227,6.09813979264103,60,-6.17442258,-6.56699400857143,-1.05062582928571,0.0217678592857089,FALSE,4.1978591,TRUE,1.9929856,6,82
"mp-4410","Yb(Al2Mo)2",0,7,3,122.4166504861,6.41399277594129,17.4880929265857,4,139,5.4818995482204,103.72974127324,-5.73869601428571,-5.73869601428571,-0.279665754285714,0.0344895057823091,FALSE,6.46641163,FALSE,0.0019807,0,125
"mp-4412","La4Se3O4",1.3261,11,3,232.009531976342,6.13013971860266,21.0917756342129,7,38,4.10704675,90,-7.42509261090909,-7.80363806545455,-3.25650009291193,0,TRUE,5.88861057,FALSE,0,0,263
"mp-4413","Th(SiRh)2",0,5,3,85.2930115146776,9.61789945912401,17.0586023029355,4,139,4.1078767223269,110.629500186297,-7.695124896,-7.695124896,-1.096502886,0,TRUE,8.44707821,FALSE,7e-07,0,149
"mp-4415","Ho(CoGe)2",0,5,3,76.6759024849137,9.27068449695077,15.3351804969827,4,139,3.91090747643738,109.971284348415,-6.218394836,-6.218394836,-0.609374802000001,0,TRUE,6.00832111,FALSE,0.0001153,0,126
"mp-4416","Ho6FeSb2",0,9,3,239.558632930331,8.93454220059856,26.6176258811479,6,189,8.16644324000107,90,-5.46191498444444,-5.50458165111111,-0.590973105555555,0.0029521960185174,FALSE,4.64051388,TRUE,0.6590315,7,412
"mp-4417","Al2(SO4)3",6.0272,34,3,396.745175465496,2.86407968336578,11.6689757489852,2,148,8.49376621869407,56.3527833626812,-6.51347924647059,-6.99842042294118,-2.33602243496324,0,TRUE,1.09841717,FALSE,0,0,53
"mp-4419","NaNbO3",1.5604,10,3,124.813922655834,4.36093929240359,12.4813922655834,4,127,5.573516,90,-7.659145507,-8.071345507,-2.81856621356034,0.0277170949999998,FALSE,1.64400349,FALSE,1.92e-05,0,68
"mp-4421","LaTaO4",3.468,24,3,327.651073095708,7.78144252303835,13.6521280456545,1,14,5.57182852,78.7872710587216,-9.35396332291667,-9.81196332291667,-3.71520672625,0,TRUE,3.7979274,FALSE,0,0,154
"mp-4423","La2Ti2O7",2.8453,22,3,288.334292486431,5.5925319201067,13.1061042039287,3,227,7.41544295643895,60,-8.77816660727273,-9.21534842545454,-3.73445576890151,0.0503633420454541,FALSE,4.7982528,FALSE,0.000951,0,127
"mp-4425","Ta2Pt3Se8",0.6803,26,3,610.900918789846,8.58307818592249,23.4961891842249,7,55,3.58893521,90,-6.01076084076923,-6.30122237923077,-0.924587991442307,0,TRUE,3.2340912,FALSE,0,0,467
"mp-4426","Li4SeO5",2.4442,20,3,190.706888498028,3.25166560575314,9.53534442490141,1,15,5.18992080127858,83.1304589148749,-5.1945743495,-5.5380743495,-1.95156969944271,0,TRUE,1.10700767,FALSE,0,0,75
"mp-4428","CaSiO3",4.7337,30,3,390.242561585517,2.96570994371765,13.0080853861839,5,2,6.740481,69.2739083162429,-7.46785712933333,-7.88005712933333,-3.42586032058333,0.0229369943333335,FALSE,2.16051419,FALSE,4.8e-06,0,50
"mp-4429","CaSiO3",4.8413,30,3,398.682626904532,2.90292620559348,13.2894208968177,5,2,7.08438356257576,103.397981245951,-7.49078669366667,-7.90298669366667,-3.44878988491667,7.43000000102967e-06,FALSE,1.65505433,FALSE,0,0,50
"mp-4431","Ag3AsS3",1.1771,14,3,303.310659587659,5.41691400356347,21.6650471134042,2,161,6.89275673156376,101.783268317798,-3.75019659857143,-3.96576802714286,-0.313462882053571,0.0019011292857142,FALSE,2.84576071,FALSE,0,0,159
"mp-4433","Ce(SiIr)2",0,5,3,84.6303137845549,11.3943794389075,16.926062756911,4,139,4.09973404951721,110.659453983942,-7.945793706,-7.945793706,-1.053674991,0.0045711189999986,FALSE,9.42732522,TRUE,0.5993185,1,149
"mp-4434","TbAlO3",5.5982,20,3,203.666150992672,7.62833756328627,10.1833075496336,7,62,5.19165377,90,-7.9729686665,-8.3851686665,-3.74116705375,0.0090005247500162,FALSE,4.46064312,FALSE,0,0,94
"mp-4437","NdTe2Se",0,8,3,240.012546939869,6.61969735056056,30.0015683674837,7,63,4.3048415634866,90,-4.7870108525,-5.1160108525,-1.47834317829427,0,TRUE,4.68687631,FALSE,0,0,146