"material_id","formula_pretty","band_gap","nsites","nelements","volume","density","density_atomic","crystal_symmetry","symmetry_number","sides_abc","angles_abc","uncorrected_energy_per_atom","energy_per_atom","formation_energy_per_atom","energy_above_hull","is_stable","efermi","is_magnetic","total_magnetization","num_magnetic_sites","atomic_number"
"mp-4608","KPF6",7.0368,8,3,102.145113902668,2.99224239956469,12.7681392378335,2,148,4.72322052312452,97.8005417891083,-4.99545635875,-5.34195635875,-3.09288445141667,0,TRUE,-2.35807651,FALSE,0,0,79
"mp-4609","HfSiO4",5.07,12,3,128.078845346641,7.01594711765336,10.6732371122201,4,141,5.51065825025983,107.03008733852,-9.05992870833333,-9.51792870833333,-3.6563850575,0,TRUE,3.32290175,FALSE,0,0,110
"mp-4611","Th(SiPt)2",0,5,3,90.7095406837044,12.4184468527203,18.1419081367409,4,139,5.83713816612319,137.204263468531,-7.110449386,-7.110449386,-1.029097196,0.0996381219999982,FALSE,8.55265625,FALSE,5.41e-05,0,182
"mp-4612","TiCo2Ge",0,4,3,48.9004087037414,8.09458115025105,12.2251021759354,3,225,4.10464663223607,60.0000104184679,-7.196220145,-7.196220145,-0.512431279583334,0,TRUE,7.52174617,TRUE,2.0001207,3,81
"mp-4613","Zr2SnC",0,8,3,144.748398122086,7.18527966503263,18.0935497652607,6,194,3.37713758,90,-8.36645481125,-8.36645481125,-0.783045159375,0,TRUE,6.97129634,FALSE,8e-07,0,96
"mp-4614","Tb(SiAg)2",0,5,3,91.9193364574502,7.78306981009246,18.38386729149,4,139,4.14152822326326,109.820898611729,-4.62957327,-4.60117327,-0.371150436666667,0,TRUE,5.88973237,FALSE,0,0,126
"mp-4618","Rb2SeO4",3.6558,28,3,529.367352347037,3.93852714209987,18.905976869537,7,62,6.15174812,90,-5.01696544928571,-5.40953687785714,-1.80328909676339,0,TRUE,-0.8315654,FALSE,0,0,95
"mp-4622","Li2BeF4",0,42,3,446.190295037024,2.20812126532289,10.6235784532625,2,148,8.18411881846008,107.799547966475,-5.27400916333333,-5.53800916333333,-3.36612709642857,0,TRUE,-3.68503238,FALSE,0,0,34
"mp-4624","TaBO4",3.4514,12,3,106.433914742617,7.98041916626132,8.86949289521807,4,141,5.1879113301789,106.316447681806,-9.07554029583333,-9.53354029583333,-3.14621958819444,0,TRUE,3.57179058,FALSE,0,0,102
"mp-4626","CaCO3",4.1871,20,3,234.243831731341,2.83803771952473,11.7121915865671,7,62,5.016055,90,-7.4670835165,-7.8792835165,-2.66441721525,0.0243540495000003,FALSE,1.90528546,FALSE,0.0045691,0,42
"mp-4627","CoAsS",0.9413,12,3,171.729233894499,6.41745835048737,14.3107694912083,7,29,5.55797365,90,-5.749924515,-5.91759118166667,-0.616295826041667,0.0005693383333333,FALSE,6.4681788,FALSE,0,0,76
"mp-4628","ZrSiSe",0,6,3,112.516519685202,5.85219399580397,18.752753280867,4,129,3.60435103,90,-6.89919813,-7.03286479666667,-1.20988808411458,0,TRUE,6.55261372,FALSE,2e-07,0,88
"mp-4630","Li2RuO3",0,12,3,105.838139537619,5.1131883873319,8.81984496146825,1,12,5.0157630283113,80.5710061530977,-6.1714212175,-6.5149212175,-1.85953548298611,0,TRUE,3.7408536,TRUE,3.9998819,2,63
"mp-4632","Sr3(PO4)2",5.4064,13,3,166.142990719543,4.52559936117999,12.7802300553495,2,166,5.38973897175138,68.3358291738698,-7.16506107307692,-7.58783030384615,-3.32101529897436,0,TRUE,2.37030856,FALSE,0,0,115
"mp-4633","Yb(SiPd)2",0,5,3,85.4777711984606,8.58753035599525,17.0955542396921,4,139,4.18445923923379,111.500878942564,-5.388753714,-5.360353714,-0.810352122000001,0,TRUE,5.31079638,FALSE,2e-07,0,130
"mp-4634","LaNi4B",0,12,3,154.564678505507,8.26140600980868,12.8803898754589,6,191,5.07482875,90,-6.20580607166667,-6.20580607166667,-0.416481805694444,0,TRUE,8.71276714,FALSE,0,0,146
"mp-4636","ScCuO2",2.1669,4,3,51.1902790754045,4.55764112591472,12.7975697688511,2,166,5.98617589401294,31.2358485250465,-7.46301815,-7.80651815,-2.725254850625,0.0002579024999862,FALSE,3.44069249,FALSE,0,0,58
"mp-4638","TlCrTe2",0,4,3,116.274669028388,7.3059556863618,29.068667257097,2,164,4.1098329,90,-4.8328441525,-5.0438441525,-0.468268551666666,0,TRUE,5.63136053,TRUE,3.0431134,1,157
"mp-4643","Nb2CuO6",0,36,3,427.902375793831,5.3608090767713,11.8861771053842,7,60,5.247101,90,-8.06735330222222,-8.52535330222222,-2.52735896694444,0.0429366519841334,FALSE,2.74182143,TRUE,4.0014751,4,110
"mp-4644","Si2N2O",4.4107,40,3,352.706229612344,3.77331841114992,8.8176557403086,4,141,12.3121159175643,154.213637580547,-7.94302096025,-8.22482096025,-1.730758036,0.18903153175,FALSE,7.6635835,FALSE,0,0,29
"mp-4647","K3(Cu4Se3)2",0,17,3,350.805724605373,5.2041188273605,20.6356308591396,1,12,9.22750883046042,75.1304674324374,-3.81646691941176,-3.98305515470588,-0.624212856650735,0.01211480117647,FALSE,3.70784487,FALSE,0.0007156,0,193
"mp-4648","KTeF5",5.2046,28,3,476.479680598532,3.64797921727147,17.0171314499476,7,57,4.63947877,90,-4.38192626285714,-4.71192626285714,-2.73891202316667,0,TRUE,-1.54827002,FALSE,0,0,107
"mp-4649","PdSe2O5",1.0057,16,3,238.699787171544,4.79082991527701,14.9187366982215,1,15,5.68739002,105.285345662302,-5.262020903125,-5.691395903125,-1.07825236292969,0.0009054018749949,FALSE,1.34244843,FALSE,0,0,112
"mp-4651","SrTiO3",1.8488,10,3,119.625077951446,5.09398778183585,11.9625077951446,4,140,5.52232970071499,119.924907126782,-8.025822916,-8.438022916,-3.55301259525,0,TRUE,3.23055315,FALSE,0,0,76
"mp-4652","MnRh2Pb",0,4,3,65.9981277574079,11.7737835421163,16.499531939352,3,225,4.53609565816595,60,-7.00622896,-7.00622896,-0.105409434482758,0.0234008350000003,FALSE,7.64252365,TRUE,4.805893,3,152
"mp-4653","Y(SiIr)2",0,5,3,82.1337069739786,10.7053910630399,16.4267413947957,4,139,4.06812796130125,110.768733581665,-8.092274966,-8.092274966,-1.09347985933333,0,TRUE,8.25838489,FALSE,4.9e-06,0,130
"mp-4655","SrTl2O4",0.0792999999999999,28,3,408.154841335156,9.11947880722331,14.5769586191127,7,62,3.43100564,90,-5.073592865,-5.46616429357143,-1.72308792333333,0,TRUE,3.86172649,FALSE,0,0,143
"mp-4656","Y(Al2Fe)4",0,13,3,189.305398205246,4.63269433182646,14.5619537080959,4,139,4.99201850714514,81.8957251051228,-5.84111090307692,-5.84111090307692,-0.432559934358974,0,TRUE,7.17174347,TRUE,6.9291178,4,130
"mp-4657","Li5GaO4",3.8563,80,3,748.454368608256,2.9893850617571,9.3556796076032,7,61,9.03365016,90,-5.178147083,-5.452947083,-2.21700056291667,0,TRUE,-0.17010656,FALSE,0,0,67
"mp-4658","La(BO2)3",4.5432,20,3,210.805780964062,4.21164916321827,10.5402890482031,1,15,6.43706024480796,62.323671092301,-8.245421852,-8.657621852,-3.1921903835,0.0041628505999931,FALSE,3.29187839,FALSE,0,0,70
"mp-4659","Cd(PO3)2",3.9678,72,3,928.501990653893,3.86803619308141,12.8958609813041,7,61,7.02821019,90,-6.58662914402778,-7.04462914402778,-2.44133725060185,0,TRUE,0.34021359,FALSE,0,0,79
"mp-4660","Tm(FeGe)2",0,5,3,81.360275726399,8.69257844839057,16.2720551452798,4,139,6.07575175181992,142.826416503708,-6.573778078,-6.573778078,-0.441391367333333,0,TRUE,6.00722911,TRUE,5.254529,2,127
"mp-4661","ScOF",4.4798,12,3,138.2474719924,3.84140890812699,11.5206226660333,1,14,5.15595087,99.8603353015405,-8.140858715,-8.523858715,-4.12697978708333,0,TRUE,1.92180195,FALSE,0,0,38
"mp-4662","ScOF",4.598,12,3,148.192960452648,3.58360524559013,12.349413371054,1,14,4.88296744,88.7214279161554,-8.09313008,-8.47613008,-4.07925115208333,0.0477286350000003,FALSE,1.27128888,FALSE,1e-07,0,38
"mp-4663","Yb2CdPd2",0,10,3,211.351842801503,10.5489626903004,21.1351842801503,4,127,3.83517802,90,-3.617414328,-3.617414328,-0.74504034,0,TRUE,2.88005534,FALSE,1e-07,0,164
"mp-4664","MnGeRh2",0,4,3,55.1175708886852,10.0440843940133,13.7793927221713,3,225,4.27170986511692,59.9999929550944,-7.566464365,-7.566464365,-0.438049643232759,0,TRUE,7.46566361,TRUE,5.005034,3,102
"mp-4666","CdSiP2",1.4257,8,3,169.762277341948,3.960434743398,21.2202846677435,4,122,5.68722755718361,115.47157581997,-4.49059813375,-4.49059813375,-0.196894932916667,0,TRUE,3.92531796,FALSE,0,0,77
"mp-4667","ZrSnRh",0,18,3,342.390979690062,9.10331595410349,19.0217210938923,6,190,7.36145189,90,-7.41185545944444,-7.41185545944444,-0.771328674444444,0,TRUE,7.66420932,FALSE,4e-07,0,135
"mp-4668","K(CoSe)2",0,5,3,101.33060162038,5.16012261703641,20.266120324076,4,139,3.897612,105.665569278726,-4.942692318,-5.131492318,-0.6677208195375,0.0251062858124999,FALSE,3.82877466,TRUE,2.2229471,2,80
"mp-4669","Th(MoO4)2",3.2608,88,3,1492.11818217065,4.91367796763299,16.9558884337574,7,61,9.98866588,90,-7.81041543170454,-8.89223361352273,-2.64871832625,0,TRUE,-0.36477214,FALSE,0,0,156
"mp-4672","TbPS4",2.1702,48,3,1101.36166025586,3.83754513298042,22.9450345886638,4,142,12.2013274285498,127.784716807643,-5.46919989291667,-5.80453322625,-1.37228854722222,0,TRUE,2.96274713,FALSE,0,0,128
"mp-4673","SrHfO3",4.0897,20,3,271.369847917292,7.68823716035505,13.5684923958646,7,63,5.7672191013236,90,-8.6944154,-9.1066154,-3.80926567658333,0.0044495510000004,FALSE,2.16451853,FALSE,0,0,126
"mp-4674","BNF8",2.9979,40,3,475.19314829637,2.47134443902375,11.8798287074093,4,113,9.69647241,90,-4.415942488,-4.785542488,-1.75477064441667,0,TRUE,-2.83626763,FALSE,0,0,75
"mp-4675","NaTaO3",2.2798,10,3,118.770011557067,7.04469612357457,11.8770011557067,4,127,3.95914,90,-8.256680122,-8.668880122,-3.06480631056035,0.004618441500007,FALSE,1.87631315,FALSE,0,0,100
"mp-4676","La3(B3Ru4)2",0,17,3,238.816748878018,8.97060982258297,14.0480440516481,7,69,5.56020751966679,81.4245200097349,-8.03878471235294,-8.03878471235294,-0.445867520588235,0,TRUE,8.17566789,FALSE,0.0001982,0,256
"mp-4678","Zr2AlN",0,8,3,132.973878866623,5.58041333007378,16.6217348583278,6,194,3.26224161436534,90,-8.3715435625,-8.4617935625,-1.16742555875,0.0206365220833362,FALSE,5.91875945,FALSE,0.0007862,0,60
"mp-4681","NaNbO3",2.3684,20,3,241.49733830344,4.50775932664676,12.074866915172,7,26,5.53000775,90,-7.674011605,-8.086211605,-2.83343231156034,0.012850997000001,FALSE,1.3652131,FALSE,0,0,68
"mp-4682","ZnSeO3",3.4442,20,3,240.839329210071,5.3053336725387,12.0419664605035,7,62,5.135797,90,-4.947995821,-5.360195821,-1.44105157671875,0.0621414927500003,FALSE,2.37088248,FALSE,0.00141,0,80
"mp-4689","Al7FeCu2",0,40,3,573.5553986339,4.30578339356977,14.3388849658475,4,128,6.25899564000025,89.9999891593976,-4.548342317,-4.548342317,-0.259595781,0,TRUE,7.64589426,FALSE,3.7e-06,0,133
"mp-4690","K3TaO8",3.04,12,3,180.215999199807,3.92742498225112,15.0179999333173,4,121,6.18747620335276,113.202872299845,-6.0168728075,-6.3268728075,-1.76333246075,0.0133399259375002,FALSE,0.42129468,FALSE,0,0,167
"mp-4691","Ag2CO3",0.4736,12,3,150.041421350445,6.10345915094838,12.5034517792037,1,11,3.16808669194503,90,-5.70612262083333,-6.04962262083333,-1.09398201534722,0,TRUE,1.709619,FALSE,0,0,69
"mp-4692","Dy(SiNi)2",0,5,3,73.5657888270333,7.5855518500277,14.7131577654067,4,139,3.93993929988906,110.998886800681,-6.260838178,-6.232438178,-0.828898926,0,TRUE,7.16525652,FALSE,4e-07,0,108
"mp-4693","RbAlF4",6.9564,24,3,325.367372158314,3.84693622534283,13.5569738399298,7,59,6.25700599,90,-5.39247692208333,-5.70047692208333,-3.63847262666667,0.0003655714166619,FALSE,-1.45049811,FALSE,0,0,77
"mp-4697","Zn(CrSe2)2",0.0388999999999999,14,3,292.869358076956,5.50253515502388,20.9192398626397,3,227,7.45409648782799,60.0002350279605,-5.53087304428571,-5.80058733,-0.864946692767857,0,TRUE,3.26045784,TRUE,11.9972266,4,88
"mp-4698","K2Ge8O17",2.7472,108,3,1678.53885831937,3.68527818706086,15.5420264659201,7,62,8.925187,90,-6.27978458601852,-6.71234014157407,-2.1457205554537,0,TRUE,-0.268896,FALSE,1.86e-05,0,243
"mp-4699","NaTaO3",2.5313,20,3,235.854054283608,7.09505412196028,11.7927027141804,7,63,5.49189031841265,90,-8.259911269,-8.672111269,-3.06803745756035,0.0013872945000077,FALSE,1.84505839,FALSE,0,0,100
"mp-4701","CuSnF6",0.0994999999999999,8,3,103.386837840711,4.75813713521136,12.9233547300888,5,2,4.98952796953147,63.5736828380093,-4.52544443375,-4.87194443375,-2.4247378925,0,TRUE,0.26622826,TRUE,1,1,124
"mp-4703","Th(Al2Fe)4",0,13,3,194.06492299585,5.74380292139258,14.9280709996808,4,139,4.99366205320588,82.0486533048808,-5.88962902615385,-5.88962902615385,-0.408202123846154,0,TRUE,7.71250372,TRUE,6.7585826,4,181
"mp-4704","Y3Fe5O12",1.6633,80,3,990.682669556434,4.94758014833868,12.3835333694554,3,230,10.8772426984656,109.471220634491,-7.61256411075,-8.58876411075,-2.5332749145,0.0235155864062495,FALSE,4.57135313,TRUE,99.9989592,68,182
"mp-4709","PrNbO4",3.7547,12,3,164.854470725458,5.99956851551078,13.7378725604548,1,15,5.22914676063373,112.333631740061,-8.82645773333333,-9.28445773333333,-3.50629679333333,0,TRUE,1.7307958,FALSE,0,0,124
"mp-4710","Hg3(BO3)2",2.629,22,3,303.493332899317,7.87215014476225,13.7951514954235,2,167,6.7646955816005,83.1933153211651,-5.28689337,-5.66162064272727,-1.66617001507576,0,TRUE,-0.56912701,FALSE,0,0,181
"mp-4711","Li2CuO2",0,5,3,48.1827195321242,3.77121669547684,9.63654390642485,7,71,5.16547417506631,147.879171877344,-4.950218256,-5.225018256,-1.66293229083333,0.0144333912499989,FALSE,2.59278148,TRUE,1,1,40
"mp-4718","NdTaO4",4.0275,12,3,159.248360329424,8.11639144584897,13.2706966941187,1,15,5.13181043458085,112.086646002293,-9.28545205166667,-9.74345205166667,-3.67467206708333,0.0042344316666671,FALSE,2.02914684,FALSE,0,0,157
"mp-4720","Si2Ni6B",0,9,3,89.8931607119204,7.74255042493116,9.98812896799115,6,189,6.07193095,90,-6.28013007333333,-6.26435229555556,-0.463146972129629,0,TRUE,9.20695726,FALSE,0,0,159
"mp-4721","RbSb3Se5",1.22,36,3,1115.19063364955,5.03614399982098,30.9775176013764,1,14,8.80451086621515,90,-3.87537123888889,-4.13759346111111,-0.710138441024305,0.0050921963888885,FALSE,2.74706318,FALSE,0,0,275
"mp-4725","Nd(GePd)2",0,5,3,94.5580875122428,8.82200294572691,18.9116175024486,4,139,4.32315707825073,111.449201493757,-5.710770664,-5.710770664,-0.8359773115,0,TRUE,5.24723571,FALSE,0,0,138
"mp-4727","Ba(SbSe2)2",0.8717,56,3,1739.4240091064,5.32073134387367,31.0611430197572,1,14,21.303774,47.1517711584663,-4.24754676214286,-4.51726104785714,-1.06574342919643,0,TRUE,3.34766491,FALSE,0,0,141
"mp-4728","Cu2GeSe3",0,6,3,129.367156672835,5.60429170426839,21.5611927788059,7,44,3.98587370719542,114.087367117874,-4.12995286333333,-4.36595286333333,-0.481090258671875,0,TRUE,3.83342038,FALSE,0,0,129
"mp-4729","Er(MnSi)2",0,5,3,77.4751477634328,7.14381062261006,15.4950295526866,4,139,3.85399108849608,109.099728041667,-7.382789316,-7.354389316,-0.605912225172413,0,TRUE,6.36401105,TRUE,4.4425717,3,107
"mp-4730","Ga2HgSe4",0.9168,7,3,183.048434081344,5.9498335853633,26.1497762973349,4,82,5.80255655476474,115.21155298979,-3.40990616285714,-3.67962044857143,-0.773403545625,0,TRUE,1.26047776,FALSE,0,0,213
"mp-4731","K2UF6",0.2828,9,3,144.072574591448,4.95854509115313,16.0080638434943,6,189,3.745822,119.999993763619,-6.07229815111111,-6.38029815111111,-3.60462240566667,0.0340935833333331,FALSE,2.89548982,TRUE,2.0000046,1,156
"mp-4732","UGa5Co",0,7,3,120.455897645776,8.89957257640863,17.2079853779679,4,123,4.21066605,90,-5.11992236,-5.11992236,-0.328464086071429,0,TRUE,5.66920969,TRUE,2.3192743,2,243
"mp-4733","ThTi2O6",3.1452,18,3,219.34734559888,6.41616228454157,12.1859636443822,1,15,6.91128476650168,70.5979767260233,-9.19348299722222,-9.65148299722222,-3.7753747137963,0.0158931794444434,FALSE,3.19237417,FALSE,0,0,152
"mp-4734","NaPO3",5.1577,40,3,510.77282740988,2.6518472244843,12.769320685247,1,14,6.14007416,61.5966481828301,-6.5368528945,-6.9490528945,-2.63387410772701,0.0078717690000011,FALSE,0.34171581,FALSE,0,0,42
"mp-4735","TbCo9Si4",0,28,3,339.011633990681,7.8534053244801,12.10755835681,4,140,7.89143729368858,121.540886034135,-6.94071020785714,-6.92042449357143,-0.469674609642857,0.0011133778571448,FALSE,7.15804263,TRUE,8.8368546,20,323
"mp-4736","NdP5O14",5.4274,80,3,1078.34457670185,3.22209433386996,13.4793072087732,1,14,9.177481,89.7043634408943,-7.3982159845,-7.8791159845,-2.82470088833333,2.12555000009829e-05,FALSE,0.87789844,FALSE,0,0,120
"mp-4738","PrScGe",0,6,3,151.65598250941,5.66090775257906,25.2759970849016,4,139,8.62365204873652,150.866692435984,-5.95591588166667,-5.95591588166667,-0.71044831,0,TRUE,4.46527973,TRUE,2.0368317,4,112
"mp-4740","Y(CrSi)2",0,5,3,79.5131773605899,5.20151378092131,15.902635472118,4,139,6.0068288166148,142.576522930214,-7.752408842,-7.724008842,-0.399368419333332,0.121266747800001,FALSE,6.55274494,TRUE,1.0473249,2,77
"mp-4742","Ho(GePd)2",0,5,3,90.329462945189,9.61530669881936,18.0658925890378,4,139,4.23892784061665,111.230727980172,-5.62331029,-5.62331029,-0.78566465,0,TRUE,5.36730089,FALSE,0,0,145
"mp-4743","ErTiGe",0,6,3,122.653545203859,7.79181203845351,20.4422575339765,4,129,4.01017527,90,-6.39189050166667,-6.39189050166667,-0.696477607777779,0,TRUE,4.93856828,TRUE,2.5162104,4,122
"mp-4744","Ca(NiAs)2",0,5,3,81.8492487219644,6.2345952766427,16.3698497443929,4,139,4.0568871609973,110.69022708621,-5.242648662,-5.242648662,-0.665826652,0,TRUE,6.43835578,FALSE,1e-06,0,81
"mp-4747","Ca2SnO4",2.7198,14,3,183.483212917783,4.75787697463859,13.1059437798417,7,55,3.27437889,90,-6.46670758285714,-6.85927901142857,-2.88677523142857,0,TRUE,3.35927175,FALSE,1e-07,0,94
"mp-4748","NaNbO3",1.8238,20,3,247.435328260352,4.3995814451858,12.3717664130176,7,63,5.58105351476986,90,-7.663303793,-8.075503793,-2.82272449956035,0.0235588090000007,FALSE,1.55723738,FALSE,0.0003101,0,68
"mp-4752","Na5Al3F14",6.7237,44,3,495.286111696903,3.09701806206364,11.256502538566,4,128,6.92063395,90,-5.24996888272727,-5.54396888272727,-3.51623890535266,0,TRUE,-1.17908264,FALSE,0,0,70
"mp-4753","Al2SiO5",4.8382,32,3,340.973553944344,3.15664377366073,10.6554235607608,7,58,5.55410567,90,-7.6524893540625,-8.0818643540625,-3.37562519828125,0,TRUE,3.41667538,FALSE,0,0,59
"mp-4755","Sc3Fe2Si3",0,16,3,249.996463331289,4.39470187174186,15.6247789582056,7,63,3.93839372,90,-7.27878048625,-7.25215548625,-0.725480008124999,0,TRUE,6.40423185,FALSE,2.2e-06,0,96
"mp-4756","ZnSnSb2",0,8,3,252.745287876313,5.61918500533444,31.5931609845391,4,122,6.31235691460235,114.011941251734,-3.44515875875,-3.54115875875,-0.1593292725,0,TRUE,4.32954068,FALSE,0,0,131
"mp-4757","KReO4",3.7244,12,3,202.302764864479,4.749305011748,16.8585637387066,4,88,7.4402802111921,135.085855371692,-7.45299357,-7.91099357,-2.3540467405,0,TRUE,-1.68844065,FALSE,0,0,118
"mp-4758","K2NbF7",4.5284,40,3,621.29945878691,3.2509689849332,15.5324864696728,1,14,12.66924211,90.033837347513,-5.62391343425,-5.94731343425,-3.3770678636,0,TRUE,-3.12771736,FALSE,0,0,114
"mp-4759","ZrTe3O8",3.6651,48,3,730.977527526626,5.47035367188831,15.228698490138,3,206,9.82887939330538,109.472068432462,-6.42502665770833,-6.88302665770833,-2.087099324375,0,TRUE,2.57420057,FALSE,0,0,200
"mp-4762","TlAg3S2",0.9033,24,3,552.106022680152,7.12352240035435,23.004417611673,7,60,6.949294,90,-3.31282586791667,-3.48049253458333,-0.291624052847222,0.0068546226851857,FALSE,2.98663921,FALSE,0.0040131,0,191
"mp-4763","ZnSiP2",1.3641,8,3,151.00927439981,3.41856557445587,18.8761592999762,4,122,5.3734067159829,114.557597594495,-4.69134571125,-4.69134571125,-0.313429047916667,0,TRUE,4.44458853,FALSE,0,0,59
"mp-4764","Pr2SeO2",2.1691,5,3,100.383012344255,6.49728198195463,20.0766024688509,2,164,4.04083515,90,-7.570909292,-7.940109292,-3.34988920996875,0,TRUE,3.16114779,FALSE,0,0,101
"mp-4767","Ce(SiOs)2",0,5,3,86.248319894223,11.1041110855134,17.2496639788446,4,139,4.20863679465575,111.638215948579,-8.56563182,-8.56563182,-0.717939805,0,TRUE,8.52787016,TRUE,0.9894605,1,148
"mp-4768","Eu(SiNi)2",0,5,3,78.2427292599942,6.90852263261135,15.6485458519988,4,139,4.0114635597321,110.873785358712,-7.21009472,-7.18169472,-0.648112476,0,TRUE,6.50131669,TRUE,7.2054991,3,105
"mp-4769","SiP2O7",5.8391,40,3,442.260034977422,3.03420366570886,11.0565008744355,1,14,6.3249947,89.8995637012511,-7.389158087,-7.870058087,-2.78218368479167,0,TRUE,1.96574739,FALSE,0,0,77
"mp-4770","Na2SO4",4.9903,14,3,172.242021518284,2.73878021290237,12.3030015370203,7,70,5.65505030755662,102.806053390196,-5.61440533571429,-6.00697676428571,-2.21151172160406,0,TRUE,0.65035697,FALSE,0,0,51
"mp-4771","TiAlCu2",0,4,3,53.4316611781677,6.27586988840545,13.3579152945419,3,225,4.22770374788904,60.0000071176555,-5.26489867,-5.26489867,-0.305028373333333,0,TRUE,7.92044547,FALSE,2e-07,0,64