"material_id","formula_pretty","band_gap","nsites","nelements","volume","density","density_atomic","crystal_symmetry","symmetry_number","sides_abc","angles_abc","uncorrected_energy_per_atom","energy_per_atom","formation_energy_per_atom","energy_above_hull","is_stable","efermi","is_magnetic","total_magnetization","num_magnetic_sites","atomic_number"
"mp-6576","YNi2B2C",0,6,4,65.3152437079014,6.09973099885229,10.8858739513169,4,139,5.76144135868673,144.125210606792,-7.27964633333333,-7.27964633333333,-0.510614082083332,0,TRUE,6.59196594,FALSE,0.0006603,0,78
"mp-6578","Ba3B(PO4)3",5.0114,76,4,1178.28042162897,3.989453043271,15.5036897582759,7,73,13.9025844159502,150.006481986472,-7.3769840906579,-7.8108788275,-3.17737942508772,0.0021433125877186,FALSE,1.20157953,FALSE,0.0097672,0,156
"mp-6580","Ba3NdRu2O9",0,30,4,466.730296211199,6.42083901133935,15.5576765403733,1,15,6.01184508913678,89.7160699543696,-7.06871371366667,-7.48091371366667,-2.57464199808333,4.53253333327908e-05,FALSE,3.51065268,TRUE,6.004404,4,280
"mp-6583","Ba2Er(CuO2)4",0,15,4,206.974470770072,6.61162358569593,13.7982980513381,7,65,13.8691284605304,90,-5.98969712733333,-6.35609712733333,-2.06436345666667,0,TRUE,2.88130358,FALSE,0.0486496,0,161
"mp-6585","CaMgB2O5",5.312,72,4,759.051004503308,2.90523619096305,10.5423750625459,1,14,11.218843,78.2634942148636,-7.38259158041667,-7.76425824708333,-3.13113524398148,0.0019687802777781,FALSE,1.93629679,FALSE,0.0004014,0,69
"mp-6586","K2NaAlF6",6.858,10,4,140.559383193937,2.86080767631162,14.0559383193937,3,225,5.83612986015373,60,-5.04946363,-5.32666363,-3.45088634775517,0,TRUE,-1.67955743,FALSE,0,0,88
"mp-6591","SrLiAlF6",7.3154,18,4,225.442768045587,3.46972033114552,12.5245982247548,2,163,5.04037593,90,-5.66048059444444,-5.96848059444444,-3.878162155,0,TRUE,-1.93181731,FALSE,0.0016616,0,99
"mp-6592","K2Pt(NO2)4",2.1194,60,4,983.513110748826,3.08839332901047,16.3918851791471,1,14,12.991211,83.1463814544824,-6.12616287883333,-6.49256287883333,-1.0784681719,0.058657220166669,FALSE,-0.49051074,FALSE,8e-06,0,112
"mp-6595","Sr3CuPtO6",0,22,4,315.385784962845,6.50226065461377,14.3357174983111,1,15,6.83323541053907,89.2006810565407,-5.94744199181818,-6.32216926454545,-2.2386281175,0,TRUE,3.6572118,TRUE,1.9992678,2,223
"mp-6596","MgAlPO5",4.9746,32,4,392.914603974439,2.74293277737152,12.2785813742012,1,14,5.43576857935993,90,-7.1665660615625,-7.5959410615625,-3.15936581869792,0,TRUE,1.2888888,FALSE,3e-07,0,72
"mp-6597","CsLiSO4",5.1673,28,4,478.508088315667,3.27464639708319,17.0895745827024,7,62,5.521697,90,-5.726323235,-6.11889466357143,-2.30067609919848,0.0033162064285701,FALSE,-0.03089369,FALSE,0.0006339,0,98
"mp-6598","K2Cu(PO3)4",1.0803,38,4,553.479437259142,2.74594930114401,14.5652483489248,1,9,8.25876262588749,84.0691321922794,-6.64657023526316,-7.08046497210526,-2.48396607075439,0,TRUE,0.75198198,TRUE,1.9997515,2,79
"mp-6599","KNb(CuSe2)2",1.4228,16,4,429.16514166465,4.4491256408113,26.8228213540406,7,40,10.0320002269351,90,-4.9057053975,-5.1417053975,-0.967484992796875,0,TRUE,1.93821768,FALSE,0.0021543,0,123
"mp-6600","K2Zr(SiO3)3",4.813,30,4,443.605435577995,2.97719252547406,14.7868478525998,6,176,7.03006535370149,90,-7.58352903666667,-7.99572903666667,-3.22475230231667,0,TRUE,0.85368116,FALSE,0.0007149,0,89
"mp-6602","SrCu2(BO3)2",0,22,4,282.517985299566,3.90663703504509,12.8417266045257,4,121,7.279985482745,102.75272940729,-6.72461834636364,-7.09934561909091,-2.28781629159091,0.0434182865909065,FALSE,2.46891768,TRUE,3.9995838,4,88
"mp-6603","Sr2CeIrO6",0,20,4,289.504855799447,6.92389469832331,14.4752427899723,1,14,5.927291,55.1451307512445,-7.2140490365,-7.6262490365,-2.84318478558333,0,TRUE,4.47334219,TRUE,2.0008228,2,213
"mp-6604","Na2LiAlF6",7.6173,20,4,220.15753149335,2.92486986697617,11.0078765746675,1,14,5.44491,54.9579072660741,-5.125367552,-5.402567552,-3.42572524314368,0.0101464670000002,FALSE,-1.37486321,FALSE,6e-06,0,72
"mp-6606","SrYSi4N7",2.7523,26,4,314.630811984758,4.084069540207,12.1011850763368,6,186,6.0614691302704,90,-8.03812603653846,-8.23251065192308,-1.4469182548718,0.0012321025961643,FALSE,5.805669,FALSE,0.0025709,0,161
"mp-6607","Ca5Si2SO12",4.5234,80,4,1106.29886844731,2.88560827929808,13.8287358555913,7,62,6.933444,90,-7.037492484125,-7.449692484125,-3.23092499103125,0.0042084858750008,FALSE,1.9257863,FALSE,0.0033196,0,110
"mp-6609","Ba2HoRuO6",0.076,10,4,149.603259459172,7.06657994057632,14.9603259459172,3,225,5.95870682067242,60,-7.183554327,-7.595754327,-2.85826497125,0,TRUE,3.14727577,TRUE,3.0000142,1,207
"mp-6610","K3Cu(CN)4",4.1649,24,4,484.406318713491,1.95333957241117,20.1835966130621,2,161,8.07742523724021,75.5806474774078,-6.71434000958333,-6.83467334291667,-0.360419577833335,0.0576031661631954,FALSE,-0.60847401,FALSE,0.0003007,0,94
"mp-6613","Ba2YTaO6",3.362,10,4,155.961372666759,6.81952275744705,15.5961372666759,3,225,6.04195308780795,60,-8.343820122,-8.756020122,-3.57178703291667,0.0015944080000007,FALSE,2.20922855,FALSE,0,0,208
"mp-6615","C2Se(SN)2",2.2605,28,4,654.741980700377,1.97948115632308,23.3836421678706,7,62,4.794307,90,-6.28158209107143,-6.52843923392857,0.171436772700892,0.306639568927507,FALSE,-0.88956262,FALSE,0,0,63
"mp-6616","Ba2HoCu3O7",0,13,4,177.309089936524,6.95103778740071,13.639160764348,7,47,3.836729,90,-6.07939108230769,-6.44931415923077,-2.19202187163461,0.0318518344551215,FALSE,3.0502538,FALSE,0.000595,0,229
"mp-6621","Ba2ErRuO6",0.0716000000000001,10,4,148.688962235982,7.13603915513684,14.8688962235982,3,225,5.94654316982245,60,-7.190158978,-7.602358978,-2.86633862825,0,TRUE,3.15684303,TRUE,3.0008054,1,208
"mp-6622","BaNd2Ti3O10",1.9244,32,4,430.529207826952,5.62659692486775,13.4540377445923,7,63,14.3803110354048,90,-8.508867015625,-8.938242015625,-3.65020245515625,0.0087365518749997,FALSE,2.7941055,FALSE,0.002176,0,160
"mp-6623","Rb2Cd2(SO4)3",3.676,76,4,1189.39133953143,3.81949327651498,15.6498860464662,3,198,10.595178,90,-5.55007678,-5.98397151684211,-2.00626300101974,0,TRUE,-0.03072416,FALSE,0.0016097,0,125
"mp-6624","Tb2Fe2Si2C",0,7,4,108.984571663763,7.58352743791821,15.5692245233947,1,12,5.65037778372464,53.456672861922,-7.29725713857143,-7.27697142428571,-0.664389113928571,0,TRUE,5.98874437,FALSE,4.32e-05,0,111
"mp-6625","LaAgSO",1.3631,8,4,152.394543290831,6.42529742842047,19.0493179113539,4,129,4.091723,90,-6.2216699575,-6.5191699575,-2.30624453588542,0.0034894193750014,FALSE,5.53431778,FALSE,3.36e-05,0,128
"mp-6628","CsCd(NO2)3",2.4366,11,4,174.208634176217,3.65389089441555,15.8371485614742,2,146,5.58508288715226,90.3103545186464,-5.80206688090909,-6.17679415363636,-1.03971150140282,0.0804713102878791,FALSE,0.37266362,FALSE,1.9e-05,0,118
"mp-6632","Ca5B3O9F",4.2368,18,4,233.530480016526,2.81448458656257,12.9739155564737,1,8,9.09264105938143,85.1801700209096,-7.26083589277778,-7.63000255944444,-3.38012188826389,0,TRUE,1.58075555,FALSE,9.6e-06,0,163
"mp-6633","NaCSN",4.1826,16,4,318.639386168379,1.68997945824951,19.9149616355237,7,62,4.121408,90,-6.12002789625,-6.33602789625,-0.579994001794181,0,TRUE,-0.16282388,FALSE,0.0078063,0,40
"mp-6635","Ba2CaReO6",0,10,4,152.076922119508,6.5179814144157,15.2076922119508,3,225,5.99136949710899,60,-7.301277629,-7.713477629,-2.91665670775,0.0001810089999993,FALSE,4.31371659,TRUE,0.9863074,1,191
"mp-6637","MnAg4(SbS3)2",0.0807999999999999,26,4,576.032161150736,5.31758432377267,22.1550831211822,1,14,8.011265,58.9222928595759,-4.32174542384615,-4.55389927,-0.433211501795977,0.0439232428205098,FALSE,4.61315302,TRUE,9.9988886,2,249
"mp-6638","Nd2Fe2Si2C",0,7,4,117.790725243363,6.60258212442418,16.8272464633376,1,12,5.7647884554117,54.1824886009396,-7.25274862857143,-7.23246291428571,-0.581657366071428,0,TRUE,5.77290737,FALSE,0.0002863,0,106
"mp-6639","RbGeSbO5",2.1777,64,4,1015.21699574641,4.70890114407392,15.8627655585377,7,33,6.81385998,90,-5.98000116203125,-6.40937616203125,-2.1011253215625,0,TRUE,1.36825322,FALSE,0,0,152
"mp-6641","Ba3SrRu2O9",0,30,4,486.874204394342,5.76895218986349,16.2291401464781,1,15,6.03893281284475,88.9408918605927,-6.722359463,-7.134559463,-2.43353134602778,0,TRUE,3.07344251,TRUE,12.0037538,8,258
"mp-6643","BaDy2ZnO5",3.0569,36,4,512.593881187532,7.87496242619264,14.2387189218759,7,62,5.76047,90,-7.00729394388889,-7.38896061055556,-3.26387885652778,0.0157282424074054,FALSE,2.6089661,FALSE,0.0037068,0,184
"mp-6644","LiLa2RuO6",0.188099999999999,20,4,254.301740377587,6.29235313440172,12.7150870188794,1,14,5.794955,54.8897301027661,-7.5244468095,-7.9366468095,-2.86309962108333,0,TRUE,5.95357846,TRUE,5.9949063,2,144
"mp-6645","Ba14Na14CaN6",0,35,4,1426.37655875744,2.75738879310373,40.7536159644982,3,225,12.6352274334121,60,-3.04578590457143,-3.10767161885714,-0.324655256049261,0,TRUE,1.40469394,FALSE,0.005247,0,55
"mp-6646","HoNi2B2C",0,6,4,64.6853790573065,8.11075125231065,10.7808965095511,4,139,5.76032203303531,144.315818775765,-6.97394095833333,-6.97394095833333,-0.518919080972223,0.129911753645833,FALSE,6.48712228,FALSE,0.0032459,0,106
"mp-6647","BaYAgSe3",1.3282,12,4,333.187554645749,5.69130705269806,27.7656295538124,7,63,7.48604271010559,90,-5.16353140333333,-5.39953140333333,-1.78190865506076,0,TRUE,2.71685194,FALSE,0.0019913,0,210
"mp-6648","KLiB4O7",5.0827,104,4,1251.64801061919,2.13626710387847,12.0350770251845,7,19,8.594244,90,-7.37930567163462,-7.74922874855769,-2.79817414273077,0,TRUE,-0.40747904,FALSE,0.0032136,0,85
"mp-6651","K2Ta2(OF2)3",3.8415,52,4,875.746959786475,4.56651993385006,16.8412876882014,7,62,5.683973,90,-7.13302250980769,-7.50479174057692,-3.48592304113461,0,TRUE,-1.7770457,FALSE,0.000523,0,109
"mp-6652","KZn4(BO3)3",2.82,34,4,454.128694562152,3.48952173923747,13.3567263106515,1,13,5.055239,85.9796366228095,-6.12239010235294,-6.48609598470588,-2.32681674348529,0.0108281888235373,FALSE,0.05049456,FALSE,0.0001245,0,130
"mp-6653","Ba2ErNbO6",2.8542,10,4,154.67319921612,6.77230607387982,15.467319921612,3,225,6.02527243883976,60,-7.887204884,-8.299404884,-3.48069428425,0,TRUE,2.06806208,FALSE,0.0001643,0,205
"mp-6654","Cs2LiGaF6",6.1433,10,4,181.49323635881,4.17634572282999,18.149323635881,2,164,6.36087582131926,90,-4.624942522,-4.902142522,-3.08247277816954,0,TRUE,-2.38303828,FALSE,0.0006695,0,134
"mp-6655","Y2Be2SiO7",4.9016,24,4,259.337787755973,4.30175572096855,10.8057411564989,4,113,7.349378,90,-8.20729586291667,-8.60804586291667,-3.56938694913194,0,TRUE,2.48423269,FALSE,0,0,105
"mp-6660","BaNaBO3",3.6487,12,4,169.065181189354,4.30446091781013,14.0887650991128,1,12,5.60521737271669,82.2210061822493,-6.63883219083333,-6.98233219083333,-2.85550583449473,0,TRUE,1.55293799,FALSE,0.0042779,0,88
"mp-6661","BaTi(SiO3)3",3.0661,28,4,375.180822832065,3.6597912188686,13.3993151011452,6,188,6.65255723000222,89.9999999942595,-7.98808353357143,-8.42972639071429,-3.3861107158631,0,TRUE,1.81895278,FALSE,1e-07,0,108
"mp-6662","NaSr3IrO6",0,22,4,318.800802342862,5.98025044027618,14.4909455610392,2,167,6.83199822896091,90.7864608995718,-6.17618795227273,-6.550915225,-2.46822685218652,0,TRUE,3.19912283,TRUE,3.9992618,2,204
"mp-6663","NaLiGe4O9",2.6387,60,4,727.405908029154,4.24135186717595,12.1234318004859,7,29,4.742192,90,-6.17778568816667,-6.58998568816667,-2.17373515607567,0,TRUE,0.94086098,FALSE,0.0002575,0,174
"mp-6665","Ba4LiW2N7",1.763,56,4,1074.05073184943,6.32011452252925,19.1794773544542,1,13,6.575305,62.7024801446731,-7.57862580267857,-7.75912580267857,-1.05508669113095,0,TRUE,2.40843436,FALSE,0.0002142,0,287
"mp-6667","CaBPO5",5.3231,24,4,264.366666987841,3.05001906451322,11.0152777911601,2,152,6.69802765076705,90,-7.51168798166667,-7.94106298166667,-3.08709576744792,0.0056390924404725,FALSE,2.89152823,FALSE,0.0006807,0,72
"mp-6668","LiTiPO5",2.9715,32,4,337.337503578416,3.2641743985586,10.5417969868255,7,62,6.37336714,90,-7.611784663125,-8.041159663125,-3.04726454484375,0,TRUE,1.56482943,FALSE,0,0,72
"mp-6669","Sr5P3O12F",5.8083,42,4,618.327171228248,3.98540055671233,14.7220755054345,6,176,9.84985778204792,90,-7.10982501714286,-7.52439644571428,-3.43110509861111,0,TRUE,1.23856675,FALSE,0.0008632,0,191
"mp-6670","Cr2Fe3(SiO4)3",2.7134,80,4,831.269680251355,4.37693951614053,10.3908710031419,3,230,10.2593838023388,109.471220634491,-7.569722379875,-8.520222379875,-2.502603520125,0.0469256241249986,FALSE,4.13804152,TRUE,71.9997603,20,114
"mp-6671","Sm4Si2S3O7",2.5927,64,4,997.344802581806,5.76610098778622,15.5835125403407,4,141,10.9680302655024,114.148100743948,-7.6598873746875,-8.0547623746875,-3.25719042597656,0,TRUE,4.23229592,FALSE,0.0042068,0,280
"mp-6672","Ca3Fe2(SiO4)3",2.3833,80,4,906.380362969106,3.72400661677532,11.3297545371138,3,230,10.5595187624268,109.471220634491,-7.308192171375,-7.945992171375,-3.016339137125,0,TRUE,3.25305958,TRUE,39.998814,8,104
"mp-6674","LiLa2SbO6",3.7234,20,4,266.151033367215,6.27038504645613,13.3075516683607,1,14,5.836932,55.1891368078508,-7.2070389245,-7.6192389245,-3.06023186608333,0.0031347195000028,FALSE,5.38191599,FALSE,0.0002912,0,151
"mp-6675","Na2Zn(SiO3)2",3.8766,22,4,278.640026465429,3.14129264029199,12.6654557484286,7,43,5.11832068091912,102.588331972564,-6.38168277272727,-6.75641004545454,-2.71681345232759,0,TRUE,0.74928604,FALSE,8.02e-05,0,71
"mp-6676","Sr2HoRuO6",0,20,4,280.192507351964,6.36778313598108,14.0096253675982,1,14,5.862911,55.0551669196104,-7.1492507115,-7.5614507115,-2.86985765308333,0,TRUE,3.18413055,TRUE,5.9993342,2,189
"mp-6678","KHgSbS3",1.8396,24,4,705.841393042823,4.30654583711352,29.4100580434509,1,15,6.43663873745241,79.6628310159954,-3.51586250958333,-3.76736250958333,-0.775290817479167,0.0114150437499986,FALSE,1.72591214,FALSE,0.000513,0,182
"mp-6680","RbCa2Ta3O10",2.2025,16,4,237.879762503007,6.06236585147702,14.8674851564379,4,123,3.941419,90,-8.515572416875,-8.944947416875,-3.3179503021875,0.0269892209598072,FALSE,1.49255878,FALSE,0.0516126,0,203
"mp-6684","NaCdPO4",2.9173,28,4,373.37990834149,4.09815220690958,13.3349967264818,7,62,5.119928,90,-5.92605638714286,-6.31862781571429,-2.39784604355501,0,TRUE,0.98466128,FALSE,0.0013074,0,98
"mp-6685","Cr4FeCuS8",0,14,4,243.450835862944,3.98265678189695,17.3893454187817,3,216,7.00877453287007,60,-6.61938296,-6.90681153142857,-0.887310338928572,0.0367583835714278,FALSE,5.01300783,TRUE,14.749205,6,239
"mp-6686","K2NaInF6",5.2445,10,4,166.425211604238,3.29258549689289,16.6425211604238,3,225,6.17416225689996,60,-4.496605468,-4.773805468,-2.99741739575517,0,TRUE,-2.0659356,FALSE,0,0,124
"mp-6687","Ba2HoSbO6",3.4155,10,4,153.76838811163,7.09859782645672,15.376838811163,3,225,6.01350052514656,60,-6.912921878,-7.325121878,-3.10217265225,0,TRUE,2.95521004,FALSE,0.0007888,0,214
"mp-6691","Ba2Dy(CuO2)4",0,15,4,208.136705332353,6.53673644439547,13.8757803554902,7,65,13.8788589780605,90,-5.98957181866667,-6.35597181866667,-2.06163361266667,0,TRUE,2.87374143,FALSE,0.0002446,0,159
"mp-6692","Ba2PrSbO6",3.712,10,4,164.483052219365,6.39366396366104,16.4483052219365,2,148,6.13191453448113,60.3935092738613,-6.827275308,-7.239475308,-2.99667639375,0,TRUE,2.79926769,FALSE,2.61e-05,0,206
"mp-6693","CaZn(SiO3)2",4.0566,20,4,231.637392225712,3.69409440134331,11.5818696112856,1,15,6.74657431958657,78.0227759572709,-7.001158658,-7.413358658,-3.03374747625,0.0376036568333333,FALSE,2.88805044,FALSE,0.00163,0,80
"mp-6694","Cs2Zr(SiO3)3",4.7899,30,4,486.023963980221,3.9993512520862,16.2007987993407,6,176,7.33231160121827,90,-7.554821778,-7.967021778,-3.2247112536408,0,TRUE,1.44091679,FALSE,0.0029078,0,125
"mp-6695","BaCdP2O7",3.5826,22,4,313.125673737399,4.49365509952295,14.2329851698818,5,2,5.740541,101.584129697585,-6.75035276863636,-7.18753458681818,-2.79705361481061,0,TRUE,1.31118747,FALSE,0.0011879,0,167
"mp-6696","K2Ti2(PO4)3",0,76,4,1009.85691003323,3.01797024522904,13.2875909214899,3,198,10.032749,90,-7.46263194736842,-7.89652668421053,-2.96958173777193,0.0060395280438543,FALSE,4.21710603,TRUE,3.9314565,8,80
"mp-6698","Th2Cu(PO4)3",2.9463,36,4,510.731178568434,5.28359406947448,14.1869771824565,1,15,11.5512140859671,73.6639382429629,-7.96185628111111,-8.41985628111111,-3.16835099083333,0,TRUE,3.66691997,FALSE,0.0012455,0,158
"mp-6699","NaMgPO4",4.8982,84,4,956.641949606395,2.96334655541731,11.3885946381714,7,19,6.932173,90,-6.50084500845238,-6.89341643702381,-2.87586462343596,0,TRUE,2.06168704,FALSE,0.000764,0,62
"mp-6700","Mg3Cr2(SiO4)3",3.101,80,4,813.106497397862,3.70177374767932,10.1638312174733,3,230,10.1841106062927,109.471220634491,-7.34519347725,-7.95729347725,-2.9701357915,0.0600258027499975,FALSE,4.32988085,TRUE,23.9998119,8,86
"mp-6702","Na7In4P9O32",3.7157,104,4,1409.04892392466,3.32554721823978,13.5485473454294,4,114,14.491748,90,-6.53423088317308,-6.95700011394231,-2.58626601213196,0,TRUE,1.50311663,FALSE,0.0007655,0,349
"mp-6704","BaNd2CuO5",0.5842,18,4,269.330144951706,7.02063677197741,14.9627858306503,4,127,6.76579,90,-7.06062741111111,-7.44229407777778,-2.96585851875,0.0210255347222112,FALSE,3.96196531,TRUE,2.0003093,2,177
"mp-6706","TiTlPO5",2.6473,64,4,922.381657400705,5.23117742789996,14.412213396886,7,33,6.573565,90,-7.40971694828125,-7.83909194828125,-2.788481795,0,TRUE,2.21082855,FALSE,7.21e-05,0,150
"mp-6708","RbNb2PS10",1.5518,28,4,755.239448296149,2.73914971938645,26.9728374391482,1,7,8.081,70.1979456347235,-5.58052778678571,-5.93981350107143,-1.08546026336309,0,TRUE,2.39425571,FALSE,0.0037425,0,93
"mp-6709","Ca3La3(BO3)5",4.137,52,4,627.654225913541,4.39701334281921,12.0702735752604,6,186,10.6046842224764,90,-7.96920126980769,-8.36554742365385,-3.42623548219551,0,TRUE,3.88763277,FALSE,7.16e-05,0,175
"mp-6710","Ba2Tm(CuO2)4",0,15,4,206.327729964391,6.64583012892524,13.7551819976261,7,65,13.8698209325762,90,-5.98635696733333,-6.35275696733333,-2.06714885577778,0,TRUE,2.88169265,FALSE,0.0025713,0,162
"mp-6711","Na3Li3Al2F12",7.851,80,4,934.704581257517,2.64161547453634,11.683807265719,3,230,10.6683868159365,109.471220634491,-5.18533549825,-5.46253549825,-3.45637331073276,0,TRUE,-2.03399897,FALSE,1.7e-06,0,41
"mp-6712","NaLuGeO4",3.632,28,4,381.568779008689,5.82444950655855,13.6274563931675,7,62,5.282501,90,-6.83613612035714,-7.22870754892857,-2.90681347557882,0,TRUE,1.07382538,FALSE,0.0012665,0,138
"mp-6716","Ba4Zr(RuO4)3",0,20,4,292.337295401192,6.45121930853523,14.6168647700596,2,166,10.3208221374573,33.1323857306976,-7.319106427,-7.731306427,-2.56095279975,0,TRUE,3.91244893,TRUE,3.9801299,3,276
"mp-6721","Sr3LiRuO6",0.312,22,4,307.271692722624,5.04603303840157,13.9668951237557,2,167,6.75347932466407,92.2791567974732,-6.38412795272727,-6.75885522545455,-2.58322449507576,0,TRUE,2.8331398,TRUE,5.9992208,2,163
"mp-6723","Sr3ZnIrO6",0,22,4,309.280564105449,6.61983472535507,14.0582074593386,2,167,6.76481867575769,91.4351873033615,-6.10936974863636,-6.48409702136364,-2.40711607431818,0,TRUE,3.70247607,TRUE,2.0012297,2,223
"mp-6724","K2Cd2(SO4)3",3.7528,76,4,1133.47559192931,3.46446392181393,14.9141525253857,7,19,10.378649,90,-5.56758724894737,-6.00148198578947,-2.01010348317763,0,TRUE,-0.03589729,FALSE,0,0,107
"mp-6726","CsLiSO4",5.378,28,4,478.054697363592,3.27775209828406,17.0733820486997,1,14,9.160102,60.1074594582905,-5.72963944142857,-6.12221087,-2.30399230562705,0,TRUE,0.16921543,FALSE,5.3e-05,0,98
"mp-6730","Sr3ZnPtO6",2.5661,22,4,310.230020267623,6.63026662402345,14.1013645576192,2,167,6.77185081768419,91.4730608557762,-5.83921411,-6.21394138272727,-2.38853324113636,0,TRUE,3.00092914,FALSE,0.0011123,0,224
"mp-6732","La2MgIrO6",0,20,4,254.911953970344,7.69100794185773,12.7455976985172,1,14,5.717538,54.9427296031157,-7.5305691405,-7.9427691405,-2.94368306975,0,TRUE,7.19075116,TRUE,1.9999739,2,186
"mp-6738","Al6B5(O5F)3",6.0927,58,4,535.513006925749,3.18102837856587,9.23298287803016,6,176,8.64915169412591,90,-7.55298222724138,-7.95612015827586,-3.27318286843391,0,TRUE,2.82913663,FALSE,0.0003667,0,135
"mp-6739","Ba2CaOsO6",0,10,4,150.889304018974,6.61355625628669,15.0889304018974,3,225,5.97573253774983,60,-6.94508128,-7.35728128,-2.68217633425,0,TRUE,3.84737387,TRUE,2.0004098,1,192