"material_id","formula_pretty","band_gap","nsites","nelements","volume","density","density_atomic","crystal_symmetry","symmetry_number","sides_abc","angles_abc","uncorrected_energy_per_atom","energy_per_atom","formation_energy_per_atom","energy_above_hull","is_stable","efermi","is_magnetic","total_magnetization","num_magnetic_sites","atomic_number"
"mp-1093","ThGe",0,2,2,56.5279760579087,8.95007846818381,28.2639880289543,3,225,4.30783864148887,60.0000068720365,-6.785244775,-6.785244775,-0.766801722499999,0,TRUE,5.96692525,FALSE,5.2e-06,0,122
"mp-1096","CeS",0,2,2,45.8905650979685,6.23032809502081,22.9452825489842,3,225,4.01864442927762,59.9999937821609,-7.08054414,-7.33204414,-2.2972746290625,0,TRUE,8.60730217,FALSE,0.0002549,0,74
"mp-1097","TaB",0,4,2,45.0350153791253,14.1411348004139,11.2587538447813,7,63,3.15708283,110.678461271364,-10.081458875,-10.081458875,-0.812874174583332,0,TRUE,7.93101406,FALSE,4e-07,0,78
"mp-1098","Yb4As3",0,14,2,337.470086126543,9.02355209619058,24.1050061518959,3,220,7.59659624623385,109.471217389872,-4.04099406571429,-4.04099406571429,-1.164452875,0,TRUE,2.12280174,FALSE,1e-06,0,276
"mp-1099","NiGe",0,8,2,106.136420590041,8.2190162523671,13.2670525737551,7,62,3.45091852,90,-5.50655534125,-5.50655534125,-0.30497307375,0,TRUE,8.30223044,FALSE,0,0,60
"mp-1100","YbC2",1.0375,3,2,45.1302833883208,7.25074448133362,15.0434277961069,4,139,3.76127584349909,116.92414706751,-6.71554673333333,-6.71554673333333,-0.0499003116666673,0.0610901409259252,FALSE,0.92883801,FALSE,0,0,76
"mp-1101","TmAs",0,2,2,46.9350896185264,8.62749176391367,23.4675448092632,3,225,4.04890498522098,59.9999854626958,-6.066446075,-6.066446075,-1.49896916083333,0,TRUE,4.21589553,FALSE,0,0,102
"mp-1102","LuN",0.2331,2,2,26.3546062100142,11.906769120713,13.1773031050071,3,225,3.34033849554413,60.0000047435426,-8.30624477,-8.48674477,-2.0580220475,0,TRUE,4.01818412,FALSE,0,0,78
"mp-1103","LuSi2",0,3,2,54.9778034686759,6.98124796845461,18.3259344895586,6,191,4.08933612071507,90,-5.55257885,-5.50524551666667,-0.381383323333334,0.128047136666667,FALSE,6.76886105,FALSE,0.0008564,0,85
"mp-1104","LaMg",0,2,2,62.9268633393539,4.30686271539703,31.4634316696769,3,221,3.97751685,90,-3.37834585,-3.37834585,-0.1102022725,0,TRUE,5.22206086,FALSE,0.0007751,0,69
"mp-1105","BaO2",2.2352,3,2,50.806471622352,5.53417895210811,16.935490540784,4,139,3.83801512284954,115.928699873026,-5.79849164666667,-6.10849164666667,-2.17104085916667,0,TRUE,2.22834475,FALSE,0,0,64
"mp-1106","Sr2Si",0.3434,12,2,400.78310012808,3.36970232405589,33.39859167734,7,62,5.1525517,90,-3.29821906333333,-3.27455239666667,-0.339784084444445,0,TRUE,2.80569404,FALSE,0,0,52
"mp-1107","Th7Rh3",0,20,2,547.403091449115,11.7273493842843,27.3701545724557,6,186,10.00437234,90,-7.978637149,-7.978637149,-0.579644012999999,0,TRUE,7.4483015,FALSE,2e-07,0,630
"mp-1108","TaB2",0,3,2,27.4066717148761,12.2734786243268,9.13555723829202,6,191,3.09430565,90,-9.05473707666667,-9.05473707666667,-0.64921668611111,0,TRUE,8.9825124,FALSE,0,0,78
"mp-1109","Sr5Al9",0,14,2,352.397157784253,3.20864465107348,25.1712255560181,2,166,12.3462325121831,27.4273279001653,-3.27798926285714,-3.27798926285714,-0.266728567380952,0,TRUE,4.34626948,FALSE,0,0,256
"mp-1111","Mn5Si3",0,16,2,202.237123165637,5.89451679652753,12.6398201978523,6,193,6.95738343000659,89.9999945647526,-8.1092661625,-8.0826411625,-0.321887343706899,0.0524025943749979,FALSE,7.92480785,TRUE,27.9037658,10,128
"mp-1112","CeCo2",0,6,2,85.5996456967628,10.009149771657,14.2666076161271,3,227,4.94682479946065,59.9999373193893,-6.96878915333333,-6.96878915333333,-0.252214238333333,0,TRUE,8.31341812,FALSE,0.0001355,0,85
"mp-1113","BW2",0,6,2,73.8553115333786,17.0197397805966,12.3092185888964,4,140,4.60163894089611,105.555038939711,-11.1270809533333,-11.1270809533333,-0.261863543055554,0,TRUE,7.79395943,FALSE,1.07e-05,0,79
"mp-1114","VP",0,4,2,53.2287192048817,5.1109060948173,13.3071798012204,6,194,3.15250195,90,-8.06351253,-8.06351253,-0.814908241666668,0,TRUE,8.27551038,FALSE,0.0001976,0,38
"mp-1115","PtSe2",0.6193,3,2,69.6491700373425,8.4161366510439,23.2163900124475,2,164,3.71730587,90,-4.74159399333333,-5.05626066,-0.701941901562499,0,TRUE,3.08254956,FALSE,0,0,112
"mp-1116","Sr2Mg17",0,38,2,974.354197062771,2.00564169212719,25.6408999227045,6,194,10.4661078021915,90,-1.63808056052632,-1.63808056052632,-0.0284096259649121,0.0177878886706144,FALSE,2.89450129,FALSE,0,0,38
"mp-1118","SiNi2",0,12,2,127.599786235665,7.57250288216039,10.6333155196387,7,62,3.69732692,90,-6.21132285583333,-6.18765618916667,-0.525792392499999,0,TRUE,10.11620412,FALSE,0,0,42
"mp-1119","Nd2Te5",0,14,2,445.197915610736,6.91136603579703,31.7998511150525,7,63,4.43515217309435,90.0000053454548,-4.68516317785714,-4.98659174928571,-1.37904541619048,0.0337043667857122,FALSE,5.49481719,FALSE,3e-07,0,268
"mp-1120","Mo3Ir",0,8,2,125.208766114391,12.732657890506,15.6510957642989,3,223,5.002782,90,-10.44342901375,-10.44342901375,-0.0995828862500012,0.0650197349999981,FALSE,8.68581177,FALSE,0.0354976,0,161
"mp-1121","GaCo",0,2,2,23.0816736373246,9.25576894095496,11.5408368186623,3,221,2.84722922,90,-5.35020966,-5.35020966,-0.28200275125,0,TRUE,6.02581106,TRUE,0.3003038,1,58
"mp-1123","HgS",0,2,2,52.3782874716535,7.37581801903893,26.1891437358267,3,216,4.19973724160289,60.0000114718623,-2.347574805,-2.599074805,-0.3790096890625,0,TRUE,1.37194997,FALSE,1e-07,0,96
"mp-1124","MgZn2",0,12,2,192.826514947019,5.3434104059593,16.0688762455849,6,194,5.15681108,90,-1.50286191583333,-1.50286191583333,-0.129606159166667,0.0034918725000001,FALSE,3.61091113,FALSE,0,0,42
"mp-1125","Li2S",3.8954,12,2,170.892331681406,1.7858446366174,14.2410276401171,7,62,3.79112043,90,-3.93196275833333,-4.099629425,-1.44819755826389,0.0555716783333339,FALSE,1.48351135,FALSE,0,0,19
"mp-1127","SmPt2",0,6,2,114.689517457078,15.6521342227649,19.1149195761797,3,227,5.453553941299,59.9999959189069,-6.686928525,-6.686928525,-1.06664426666667,0,TRUE,6.14565028,FALSE,3.1e-06,0,140
"mp-1128","SiIr",0,8,2,113.342103240484,12.9103271338971,14.1677629050605,7,62,3.23541299,90,-7.83036659875,-7.79486659875,-0.662990493750001,0,TRUE,9.54135815,FALSE,0,0,91
"mp-1129","ScIr",0,2,2,33.336071853179,11.8140759850122,16.6680359265895,3,221,3.21838608,90,-8.643917585,-8.643917585,-1.0584659425,0,TRUE,6.96848892,FALSE,0,0,98
"mp-1133","V5S4",0,18,2,253.372971153951,5.01973428414145,14.0762761752195,4,87,3.16971228345054,89.9967854695263,-7.79884178333333,-8.02239733888889,-1.1373606925,0,TRUE,7.729894,FALSE,0.0037912,0,140
"mp-1135","NbPd3",0,4,2,61.6337522748139,11.1046034140093,15.4084380687035,4,139,3.91654027782143,113.658614075135,-6.8332610575,-6.8332610575,-0.42302344,0.0025665883333338,FALSE,5.72082953,FALSE,1.8e-06,0,133
"mp-1136","Na3As",0.0926,8,2,196.044058430451,2.43757934527381,24.5055073038064,6,194,5.027016,90,-2.56967388125,-2.56967388125,-0.413000309913793,0.0011032654166664,FALSE,1.0703234,FALSE,0,0,55
"mp-1139","Co3Mo",0,8,2,90.9153586814862,9.96299728602397,11.3644198351858,6,194,5.04827121000021,90,-8.09532028125,-8.09532028125,-0.0526694074999998,0,TRUE,6.90188302,TRUE,3.9539311,8,96
"mp-1140","NdCu5",0,6,2,90.4669563227612,8.47958840284681,15.0778260537935,6,191,5.06720535,90,-4.3686813,-4.3686813,-0.157984502916666,0,TRUE,5.67839149,FALSE,0,0,176
"mp-1143","Al2O3",5.8537,10,2,87.4200193995937,3.87349911916901,8.74200193995937,2,167,5.17795476286719,55.2896276411624,-7.481357943,-7.893557943,-3.42731438425,0,TRUE,5.87476121,FALSE,0,0,29
"mp-1144","ErP",0,2,2,43.9524651584716,7.48930109822459,21.9762325792358,3,225,3.96125489470336,59.9999980097115,-6.599250105,-6.599250105,-1.60873944666667,0,TRUE,4.66210245,FALSE,0,0,83
"mp-1146","ThS2",1.0336,12,2,271.243200429056,7.25251188794704,22.6036000357547,7,62,4.30612083000003,89.9999877132489,-7.213463265,-7.54879659833333,-2.31987727041667,0,TRUE,6.43817068,FALSE,0,0,106
"mp-1147","Ti3O5",0,16,2,173.764642494672,4.27351858103136,10.860290155917,1,12,3.83695506,91.0745554069024,-9.00385312625,-9.43322812625,-3.38073817546875,0,TRUE,5.78141464,FALSE,0.0001098,0,76
"mp-1148","Th2Pd",0,6,2,159.779215961351,11.8580015417384,26.6298693268918,4,140,5.95745241065655,75.6060630535042,-7.18120973666667,-7.18120973666667,-0.5120103,0,TRUE,7.31599331,FALSE,1e-07,0,136
"mp-1150","URh3",0,4,2,63.8426742099068,14.2207719840212,15.9606685524767,3,221,3.99671969,90,-9.018801815,-9.018801815,-0.67271841,0,TRUE,9.11119004,TRUE,0.173032,4,182
"mp-1152","TiRh3",0,4,2,56.0047401548745,10.5726913582229,14.0011850387186,3,221,3.82597031,90,-8.1150613775,-8.1150613775,-0.617957470833334,0,TRUE,7.32210152,FALSE,1.9e-06,0,112
"mp-1157","TaNi2",0,3,2,38.7546757782641,12.7828805457188,12.9182252594214,4,139,3.14716957014915,110.461690138293,-8.14059027333333,-8.14059027333333,-0.334573276666667,0.0010680713333339,FALSE,7.2023788,FALSE,1.5e-06,0,101
"mp-1158","LuPd3",0,4,2,66.1123383137645,12.413465658613,16.5280845784411,3,221,4.04353158,90,-5.95347312,-5.95347312,-0.9383241325,0,TRUE,4.88340255,FALSE,7e-07,0,163
"mp-1159","Zr2Fe",0,6,2,111.286622579785,7.11127405297301,18.5477704299642,4,140,5.25549517781155,107.407917741194,-8.660942765,-8.660942765,-0.139135275,0.0045754856666686,FALSE,4.46749331,FALSE,6e-07,0,66
"mp-1161","LaSe",0,2,2,56.8259441215646,6.36635483652056,28.4129720607823,3,225,4.31539500467355,60.0000031881803,-6.21027545,-6.44627545,-2.23031615867187,0,TRUE,7.95112084,FALSE,0.0004744,0,91
"mp-1163","UBe13",0,28,2,268.338725756949,4.39595400249054,9.58352591989105,3,226,7.23990365481945,60.0000025969259,-4.33718643678571,-4.33718643678571,-0.0583452042857146,0,TRUE,5.57671959,TRUE,5.2969946,2,92
"mp-1164","ThC",0,2,2,38.5706741360286,10.5067518059464,19.2853370680143,3,225,3.79248739397417,59.9999848418363,-8.596661635,-8.596661635,-0.27539976375,0,TRUE,6.95433119,FALSE,8e-07,0,96
"mp-1167","CF4",9.3354,10,2,122.847069609692,2.37913040820563,12.2847069609692,1,15,4.18288050152673,82.5970476344395,-5.188190706,-5.557790706,-2.1828744335,0,TRUE,-5.38132639,FALSE,0,0,33
"mp-1168","HfTe5",0,12,2,424.780501884766,6.38359593471189,35.3983751570638,7,63,4.01718892788508,89.9778398604871,-4.74449113166667,-5.09615779833333,-0.817204715555555,0,TRUE,4.63739128,FALSE,0,0,280
"mp-1169","ScCu",0,2,2,34.0395711705933,5.29300627125541,17.0197855852967,3,221,3.24086813,90,-5.496633165,-5.496633165,-0.2807952775,0,TRUE,5.39443608,FALSE,2.43e-05,0,50
"mp-1170","SnS2",1.5148,3,2,72.8262158971044,4.16900643809526,24.2754052990348,2,164,3.67430564,90,-4.46890474,-4.80423807333333,-0.710080877083334,0,TRUE,3.62227361,FALSE,0,0,66
"mp-1172","MgRh",0,2,2,29.4135194195382,7.18166370772355,14.7067597097691,3,221,3.08685098,90,-4.94716338,-4.94716338,-0.46486942,0,TRUE,5.70327452,FALSE,1e-07,0,57
"mp-1174","MgSc",0,2,2,46.5181601784414,2.47237744835931,23.2590800892207,3,221,3.59645124,90,-4.00647942,-4.00647942,-0.0401048424999994,0,TRUE,3.42404925,FALSE,0.2771671,0,33
"mp-1175","SrS3",1.0931,8,2,201.994676003651,3.02217855010754,25.2493345004564,7,41,5.42156943193342,90,-4.54072287375,-4.91797287375,-1.39326211026042,0,TRUE,3.6418562,FALSE,0,0,70
"mp-1176","TbTe",0,2,2,58.6017500394942,8.11898171855935,29.3008750197471,3,225,4.35988606501344,60.0000004052759,-5.19571169,-5.40671169,-1.51787569333333,0.0021960799999991,FALSE,6.47754438,FALSE,1.2e-06,0,117
"mp-1179","DyNi5",0,6,2,78.8871071313218,9.59790571759703,13.1478511885536,6,191,4.82625346147127,90,-5.91408839333333,-5.91408839333333,-0.329510020000001,0,TRUE,6.3726183,TRUE,1.879304,6,178
"mp-1180","MnPt3",0,4,2,59.8207050289027,17.7707798538531,14.9551762572257,3,221,3.91096353,90,-7.1975072125,-7.1975072125,-0.353653399482758,0,TRUE,7.035802,TRUE,4.4469808,1,181
"mp-1182","DySi",0,8,2,171.714914996228,7.37209503983849,21.4643643745284,7,62,3.82285931,90,-5.84194224375,-5.80644224375,-0.790389808750001,0.0022929987499997,FALSE,5.39737064,FALSE,0,0,80
"mp-1184","La2C3",0,20,2,343.805388600367,6.06329797007667,17.1902694300184,3,220,7.64383834360922,109.471219770794,-7.677252512,-7.677252512,-0.165650374499999,0,TRUE,8.63082749,FALSE,7.02e-05,0,69
"mp-1185","VRh3",0,4,2,53.999973869026,11.0597490484674,13.4999934672565,3,221,3.77976254,90,-8.15920074,-8.15920074,-0.36499332,0.0149490899999964,FALSE,7.27151608,FALSE,2.94e-05,0,113
"mp-1186","ZrS2",1.0418,3,2,71.2891006325531,3.61866517972002,23.7630335441844,2,164,3.69138227,90,-7.12047403666667,-7.45580737,-1.84894058208333,0,TRUE,1.90079098,FALSE,0,0,56
"mp-1187","ThIr2",0,6,2,113.542610394373,18.0315730903455,18.9237683990622,3,227,5.4353138311747,59.9999957510524,-9.196849435,-9.196849435,-0.833273898333333,0,TRUE,9.22788571,FALSE,1.57e-05,0,167
"mp-1189","PrAl2",0,6,2,131.110385622805,4.93615290528236,21.8517309371342,3,227,5.70230887466499,59.9999884102105,-4.58127256833333,-4.58127256833333,-0.490586763333334,0,TRUE,5.84136112,FALSE,6.36e-05,0,72
"mp-1190","ZnSe",1.1663,2,2,45.4478477169564,5.27484526877899,22.7239238584782,3,216,4.00567901133248,59.9999965161005,-3.093388575,-3.329388575,-0.951561031171875,0,TRUE,1.321407,FALSE,0,0,64
"mp-1194","CdPt",0,4,2,68.5593254231462,14.8953466835536,17.1398313557865,4,123,3.84605277,90,-3.80314323,-3.80314323,-0.30613169,0,TRUE,4.81851143,FALSE,0,0,126
"mp-1195","Ba3P14",1.7751,34,2,888.028434355357,3.1624539860241,26.1184833633929,1,14,6.56781358495124,90,-5.30452483058824,-5.30452483058824,-0.50786836509804,0,TRUE,3.2661114,FALSE,0,0,112
"mp-1199","HoMg",0,2,2,53.700475861111,5.85158020672429,26.8502379305555,3,221,3.77276173,90,-3.164972965,-3.164972965,-0.0736285049999998,0,TRUE,3.07904504,FALSE,1e-07,0,79
"mp-1200","TbCo5",0,6,2,83.1300810061669,9.06057237424659,13.8550135010278,6,191,4.931248,90,-6.80049745666667,-6.80049745666667,-0.104504944166667,0.0172317827272729,FALSE,4.37086878,TRUE,7.1780703,6,173
"mp-1201","Sb2Te3",0.1314,5,2,169.924457190259,6.12053641594644,33.9848914380518,2,166,10.8800285481121,22.8154868277774,-3.667583878,-3.920783878,-0.383199846,0,TRUE,6.00628528,FALSE,0,0,155
"mp-1203","TiO",0,10,2,107.452927228572,4.93484239929124,10.7452927228572,1,12,4.13376482273411,105.935392014216,-8.943442357,-9.286942357,-2.86585199304167,0.0427404329999827,FALSE,7.3485241,FALSE,0,0,30
"mp-1207","NdFe2",0,6,2,103.138060218404,8.24109128081578,17.1896767030673,3,227,5.26394470967183,60,-7.15514207,-7.15514207,0.0809212141666672,0.0809212141666666,FALSE,4.75397797,TRUE,7.745828,6,86
"mp-1208","ErAl2",0,6,2,117.481006874022,6.25374111713083,19.580167812337,3,227,5.49744474505043,60.0000100662924,-4.52655196666667,-4.52655196666667,-0.506928476666667,0,TRUE,5.836814,FALSE,1.07e-05,0,81
"mp-1209","RbAu5",0,6,2,131.947984037061,13.4695201825174,21.9913306728435,6,191,5.81821595,90,-3.08154134333333,-3.08154134333333,-0.189883997916667,0,TRUE,3.41032653,FALSE,0,0,353
"mp-1210","ThCd2",0,3,2,76.0376534706182,9.97708297103572,25.3458844902061,6,191,5.08946094,90,-3.26655866,-3.26655866,-0.180012736666667,0,TRUE,4.464321,FALSE,1e-07,0,138
"mp-1211","ScCd",0,2,2,43.8471492700143,5.95965551961001,21.9235746350071,3,221,3.52625559,90,-3.91784189,-3.91784189,-0.2901624575,0,TRUE,3.63347964,FALSE,2.4e-06,0,69
"mp-1213","NdSb",0,2,2,58.2765710042818,7.5794904398421,29.1382855021409,4,123,3.450807,90,-5.37631443,-5.47231443,-1.02374009375,0.254323105,FALSE,5.84791429,FALSE,2.4e-06,0,111
"mp-1214","VS",0,4,2,55.6641411723798,4.95239962851078,13.916035293095,6,194,3.15544342476933,90,-7.1557445325,-7.4072445325,-0.797066564062501,0.4117285440625,FALSE,8.39143003,TRUE,1.8336444,2,39
"mp-1215","Ti2O",0,3,2,36.4445611280941,5.09095651040831,12.148187042698,2,164,2.95407944,90,-8.71954401333333,-8.94854401333333,-2.03598643180556,0,TRUE,7.5196252,FALSE,2.8e-06,0,30
"mp-1216","YbO",3.4606,2,2,25.4891159744241,12.3153470344597,12.744557987212,3,225,3.30336548673021,59.9999993485745,-6.52999764,-6.87349764,-3.630349144375,0,TRUE,1.20157094,FALSE,1e-07,0,78
"mp-1217","KSi",1.2223,64,2,2011.63676270186,1.77465556981055,31.4318244172166,3,218,12.62359893,90,-3.33298823375,-3.29748823375,-0.0296297452500002,0,TRUE,1.74995827,FALSE,0,0,33
"mp-1219","BaGa2",0,3,2,87.0575095362956,5.27918133114606,29.0191698454319,6,191,4.40253162,90,-3.12169916666667,-3.12169916666667,-0.463310171666666,0,TRUE,2.4292018,FALSE,1.63e-05,0,87
"mp-1220","Be5Au",0,6,2,56.6832933751301,7.09020348218764,9.44721556252169,3,216,4.31178012920471,60.0000116083165,-3.74717654333333,-3.74717654333333,-0.0853521558333335,0,TRUE,6.20629486,FALSE,3e-07,0,95
"mp-1221","V3Ge",0,8,2,106.508484566156,7.03028705941051,13.3135605707695,3,223,4.74024223,90,-8.30371116875,-8.30371116875,-0.3350246525,0,TRUE,6.98700601,TRUE,1.2464263,6,78
"mp-1222","CrSi2",0.363899999999999,9,2,107.323703931146,5.02076490164919,11.9248559923495,6,180,4.41048966819343,90,-7.19384926222222,-7.14651592888889,-0.311954752222222,0.0129531944444449,FALSE,11.00688118,FALSE,6.9e-06,0,38
"mp-1223","La4Sb3",0,14,2,459.238261159301,6.6596957508945,32.80273293995,3,220,8.4182142263379,109.471210938773,-5.72439885857143,-5.80668457285714,-1.21653712428571,0,TRUE,8.00969873,FALSE,0.00013,0,273
"mp-1224","HgO",1.1867,8,2,133.574281024958,10.7701919067564,16.6967851281198,7,62,3.58509138,90,-2.92037400375,-3.26387400375,-0.638689465625,0,TRUE,0.46310693,FALSE,0,0,88
"mp-1229","CuF2",0,6,2,68.0915871060433,4.95261761770377,11.3485978510072,1,14,3.2914213925937,89.9998967596237,-4.14566129666667,-4.45366129666667,-1.81293976166667,0,TRUE,1.09219321,TRUE,2.0000003,2,38
"mp-1231","Cr3Ga",0,8,2,94.5824702651439,7.92541007593448,11.822808783143,3,223,4.55620809,90,-8.03862481625,-8.03862481625,-0.0418152081249987,0.0070372406249994,FALSE,6.30821243,FALSE,1e-07,0,79
"mp-1232","Mo3Pt",0,8,2,124.339388930877,12.8982611916034,15.5424236163597,3,223,4.99117629,90,-9.76451929,-9.76451929,-0.112498377500001,0.0468453624999991,FALSE,8.17780845,FALSE,4e-06,0,162
"mp-1233","Cu6Sn5",0,22,2,388.78171471635,8.32722628078546,17.6718961234705,1,15,6.58308504708267,82.716337131307,-4.07159744090909,-4.07159744090909,-0.0131338686363636,0.008058229090909,FALSE,8.25702598,FALSE,0,0,345
"mp-1234","LuAl2",0,6,2,114.682452554747,6.62956412671557,19.1137420924578,3,227,5.45344092956596,59.9999938397412,-4.48633578,-4.48633578,-0.48230172,0,TRUE,5.79936637,FALSE,5.6e-06,0,84
"mp-1235","TiIr",0,4,2,59.6707498800443,13.3622876222282,14.9176874700111,4,123,3.48078158,90,-9.2245831,-9.2245831,-0.857620001666668,0,TRUE,8.1599512,FALSE,2.73e-05,0,99
"mp-1236","NdAg",0,2,2,52.0569037612918,8.04194652275167,26.0284518806459,3,221,3.73387216,90,-4.05571518,-4.05571518,-0.255363462083333,0,TRUE,3.53408928,FALSE,5e-07,0,107
"mp-1237","UGe2",0,6,2,127.01722243278,10.022253792673,21.1695370721301,7,65,7.80793700693655,90,-7.11087102666667,-7.11087102666667,-0.26504912,0.031399657083333,FALSE,8.94406159,TRUE,4.629394,2,124
"mp-1239","Sb3Ir",0.0536999999999991,16,2,405.680260752282,9.12783428304473,25.3550162970176,3,204,8.07734442834534,109.471222509348,-5.651584563125,-5.795584563125,-0.489225088125,0,TRUE,7.70117787,FALSE,0,0,179
"mp-1240","HoS",0,2,2,40.9475197904203,7.98872377305493,20.4737598952102,3,225,3.86884188095342,59.9999754826792,-6.33006231,-6.58156231,-2.2221329415625,0,TRUE,6.5122606,FALSE,8e-07,0,83
"mp-1241","BaAg2",0,6,2,180.061535163669,6.51194679811788,30.0102558606115,6,191,4.84971826571675,84.5757428387137,-2.82314294666667,-2.82314294666667,-0.295113964444445,0,TRUE,2.35907384,FALSE,5.5e-06,0,103
"mp-1243","Ga2O3",2.4025,10,2,96.9706975896667,6.41963860515224,9.69706975896667,2,167,5.33168661255896,55.8935048611945,-6.007018121,-6.419218121,-2.23996648525,0.0297935599999963,FALSE,2.62404738,FALSE,0,0,47
"mp-1244","SrGe2",0.3359,24,2,650.643362677477,4.75516475901218,27.1101401115615,7,62,6.59112885000008,89.9999824832381,-4.12745488875,-4.12745488875,-0.482271834305555,0.0125705112499998,FALSE,3.94249837,FALSE,0,0,70
"mp-1245","Sr2N",0,3,2,89.4110616754498,3.51468300103427,29.8036872251499,2,166,7.34141349345561,30.3286495406589,-4.45143280666667,-4.57176614,-0.666605529444444,0,TRUE,2.09264585,FALSE,0.0002668,0,45