"material_id","formula_pretty","band_gap","nsites","nelements","volume","density","density_atomic","crystal_symmetry","symmetry_number","sides_abc","angles_abc","uncorrected_energy_per_atom","energy_per_atom","formation_energy_per_atom","energy_above_hull","is_stable","efermi","is_magnetic","total_magnetization","num_magnetic_sites","atomic_number"
"mp-5497","Er(CoGe)2",0,5,3,76.2498665214949,9.37319627134997,15.249973304299,4,139,3.9051151301362,109.989261508907,-6.210425148,-6.210425148,-0.604343126000001,0,TRUE,6.05157492,FALSE,0.0006107,0,127
"mp-5498","Ca(MnAs)2",0,5,3,96.9493494510045,5.13489894387993,19.3898698902009,2,164,4.00033771271839,90,-6.400780544,-6.400780544,-0.471207089172414,0.0788424023669938,FALSE,4.48195437,TRUE,5.222442,2,78
"mp-5501","Tl(CoS)2",0,5,3,91.3178893484024,7.02598991680508,18.2635778696805,4,139,7.06651422500012,149.374321596882,-5.32583149,-5.52703149,-0.556595795916667,0.0534550352847214,FALSE,6.07984197,TRUE,1.8440188,2,124
"mp-5503","ErTaO4",4.0517,12,3,143.70118334681,9.52645798073355,11.9750986122342,1,15,5.03997153373758,111.868614179569,-9.31776891666667,-9.77576891666666,-3.7403937025,0.004063955833331,FALSE,2.29233075,FALSE,0,0,165
"mp-5504","BaCO3",4.3974,20,3,308.791652432089,4.24472577042525,15.4395826216044,7,62,5.35922589,90,-7.469347381,-7.881547381,-2.68400606775,0,TRUE,0.68234594,FALSE,0,0,78
"mp-5505","U2TeN2",0,5,3,97.2585843418649,10.7848036772768,19.451716868373,4,139,3.89775458509212,106.237272083171,-9.823296856,-10.052096856,-1.57227370333333,0,TRUE,9.90921725,TRUE,4.0000001,2,151
"mp-5506","Ba(AlSi)2",0,20,3,469.911438509134,3.49784025225877,23.4955719254567,7,62,4.24273618,90,-4.349940004,-4.321540004,-0.269387472,0,TRUE,5.2133961,FALSE,1e-07,0,83
"mp-5508","Th(SiPd)2",0,5,3,89.275742963058,9.3195700287534,17.8551485926116,4,139,4.22182575851605,111.224257081692,-6.675180758,-6.646780758,-0.921929172,0,TRUE,7.59192116,FALSE,0,0,150
"mp-5510","U(SiAu)2",0,5,3,93.1616709466439,12.2654713855119,18.6323341893288,4,139,4.194826,110.21945390539,-5.973899354,-5.945499354,-0.20753734,0.0208820026666645,FALSE,8.82623061,TRUE,2.5934223,1,185
"mp-5511","Cu6Mo5O18",0.7168,58,3,709.021949623102,5.38178430661582,12.2245163728121,1,15,10.0174232695556,54.298985727244,-6.32265636293103,-7.30113912155172,-1.51272921215517,0.0374933023399002,FALSE,3.87828078,FALSE,0.0010484,0,313
"mp-5512","Sr4Al14O25",3.9459,86,3,1059.09056793388,3.53781082043361,12.3150066038823,7,51,4.935987,90,-7.31537457174419,-7.71479317639535,-3.46215938070736,0.0022539670348837,FALSE,7.06544526,FALSE,0.1041913,0,122
"mp-5513","Tl3VS4",1.9554,8,3,218.276540282142,6.02781431515501,27.2845675352677,3,217,6.56966125577391,109.471217871132,-4.69767335375,-4.94917335375,-0.8594689815625,0,TRUE,2.40072008,FALSE,0,0,233
"mp-5514","TbCuSi",0,6,3,111.72945424549,7.44762320086303,18.6215757075816,6,194,4.12037036,90,-5.38794499,-5.36427832333333,-0.644648056666666,0,TRUE,5.73960764,FALSE,0,0,108
"mp-5515","Li7MnN4",0.5766,96,3,846.614404528373,2.50354419063493,8.81890004717055,3,218,9.46008598000132,89.9999774089334,-5.21540246416667,-5.3357357975,-0.679864542605364,0,TRUE,2.91188738,TRUE,16.0000074,8,64
"mp-5516","Sc2(WO4)3",3.8658,68,3,1318.86890064925,4.19733651020851,19.3951308919008,7,60,9.773886,90,-7.95847166676471,-9.22658931382353,-2.70308381764706,0.0115784180882467,FALSE,-1.88025628,FALSE,2.13e-05,0,119
"mp-5517","Tb(NiP)2",0,5,3,69.7046244986276,8.05819423564127,13.9409248997255,4,139,3.86659477763392,110.958685287735,-6.4220903,-6.4220903,-1.01784140533333,0,TRUE,8.69173458,FALSE,0,0,108
"mp-5518","GaAgSe2",0.2492,8,3,198.740621229131,5.6065987057525,24.8425776536413,4,122,5.98469527496747,115.391544114443,-3.66774875625,-3.90374875625,-0.690630010963541,0,TRUE,1.75513336,FALSE,0,0,112
"mp-5519","HoGeAu",0,6,3,123.262447982844,11.707790845818,20.543741330474,6,186,4.41551648,90,-4.98129903666667,-4.98129903666667,-0.821526128333333,0,TRUE,5.82923877,FALSE,0,0,178
"mp-5525","KAlO2",3.9994,64,3,911.968584208094,2.85735125203971,14.2495091282515,7,61,5.41759802,90,-6.25911868046875,-6.60261868046875,-2.91528063059375,0,TRUE,1.32309697,FALSE,0,0,40
"mp-5526","La(CoSi)2",0,5,3,80.9030626242078,6.42316653767868,16.1806125248416,4,139,4.03039025448271,110.560011169705,-6.732524394,-6.704124394,-0.703468642999999,0,TRUE,8.23204918,TRUE,1.0724756,2,98
"mp-5528","Ni3(SnS)2",0,7,3,114.191084559478,6.94558256931922,16.3130120799255,2,166,5.39101079410711,61.3668198354151,-5.18336837428571,-5.32708266,-0.522446448035714,0,TRUE,8.02916107,FALSE,2.2e-06,0,122
"mp-5529","MnFe2Si",0,4,3,42.6634047746428,7.57861333329049,10.6658511936607,3,225,3.9221441002133,59.9999908935891,-8.218783355,-8.201033355,-0.319189419482758,0,TRUE,8.05121851,TRUE,3.0000767,3,65
"mp-5532","Sr2TiO4",1.9142,7,3,95.5954278840286,4.98714650954785,13.6564896977184,4,139,3.89623570144172,106.464706116474,-7.48974644142857,-7.88231787,-3.44499876023809,0,TRUE,2.51677959,FALSE,0,0,84
"mp-5537","NbAgO3",1.7879,40,3,513.750327808372,6.43264866276868,12.8437581952093,7,57,5.670564,90,-7.32561684325,-7.73781684325,-2.18303140783333,0.059493849673073,FALSE,1.99927946,FALSE,0.002005,0,104
"mp-5538","YSnPd2",0,4,3,77.1976206196057,9.04410471594501,19.2994051549014,3,225,4.77939628638614,59.9999964030951,-6.0828650475,-6.0828650475,-0.873913400416667,0,TRUE,6.48056477,FALSE,1.09e-05,0,135
"mp-5540","SrB4O7",7.1191,24,3,201.651041799538,3.99976297675232,8.40212674164741,7,31,4.24129241,90,-7.86995618416667,-8.27070618416667,-3.01788272454861,0.0068223917939818,FALSE,3.13841072,FALSE,0,0,101
"mp-5541","ZrVSi",0,6,3,97.9622823068901,5.77178134217137,16.3270470511484,4,129,3.68185515,90,-8.44152037166667,-8.417853705,-0.732212128333334,0,TRUE,6.22679015,FALSE,1.6e-06,0,77
"mp-5544","U(Al2Cr)4",0,13,3,196.685810231528,5.58786480612423,15.1296777101175,4,139,6.75254880167793,97.8726160285466,-6.26130097230769,-6.26130097230769,-0.117592777692307,0.0461689424602065,FALSE,8.16359791,TRUE,1.3523415,5,177
"mp-5546","Cu8GeS6",0.6153,30,3,481.407438861353,5.3354289500299,16.0469146287118,7,31,6.967086,90,-4.315356067,-4.516556067,-0.367530705916667,0.0441978649583365,FALSE,5.85767307,FALSE,0.0031645,0,315
"mp-5547","Mg2B2O5",5.1836,18,3,170.31873749954,2.92934444088308,9.4621520833078,5,2,3.10431663840247,104.317343777348,-7.22883150777778,-7.61049817444444,-3.02241070800926,0.0003111975000003,FALSE,2.10160182,FALSE,0,0,49
"mp-5548","Ta2Cd2O7",2.0269,22,3,281.984060939072,8.22912585115126,12.8174573154123,3,227,7.36059947164741,60,-7.724960245,-8.16214206318182,-2.69049153965909,0,TRUE,1.20244851,FALSE,0,0,169
"mp-5549","MgSnAu",0,3,3,66.7316905223181,8.46003859380201,22.2438968407727,3,216,4.5528398891132,60.0000060268896,-3.4053348,-3.4053348,-0.444090165,0,TRUE,6.13181635,FALSE,4e-07,0,141
"mp-5553","Nd(CoB)2",0,5,3,63.1755232491845,7.45772053392111,12.6351046498369,4,139,3.56677167710182,108.674814552049,-6.959411126,-6.959411126,-0.490697813166668,0,TRUE,5.17132156,FALSE,7.1e-06,0,92
"mp-5556","U(SiRh)2",0,5,3,82.0080310205618,10.1244675606593,16.4016062041124,4,139,4.06354866205503,110.738699072067,-8.182471746,-8.182471746,-0.808339384,0,TRUE,9.56855197,TRUE,2.1763068,1,151
"mp-5557","ThB4Mo",0,12,3,136.686746648092,9.01958307048982,11.3905622206743,7,65,3.78899246,104.195427944214,-8.07262449083333,-8.07262449083333,-0.576445250277777,0,TRUE,8.53291261,TRUE,0.7047415,2,147
"mp-5558","NaReO4",3.6152,12,3,164.114336444271,5.52846183695396,13.6761947036892,4,88,6.89578441973771,134.519101795014,-7.40512321166667,-7.86312321166667,-2.27082199109195,0,TRUE,-0.82886254,FALSE,0,0,110
"mp-5560","Cd3(BO3)2",1.4576,22,3,261.212732175927,5.78301457900611,11.8733060079967,7,58,4.79805484,90,-5.87950633909091,-6.25423361181818,-2.08990769462121,0.0017164095454624,FALSE,1.44273313,FALSE,0,0,117
"mp-5561","Ho(CrSi)2",0,5,3,79.0348943700458,6.83028040413379,15.8069788740092,4,139,5.9961420252911,142.591930056622,-7.376842048,-7.348442048,-0.400614073999999,0.1100833868,FALSE,6.46239429,TRUE,1.0323986,2,105
"mp-5563","Ag5GeO4",0.5958,40,3,582.564980531035,7.70721832584152,14.5641245132759,1,14,9.89279619,55.9795945254062,-4.40361007225,-4.67841007225,-0.821153800583333,0,TRUE,1.45683867,FALSE,0,0,244
"mp-5564","Pr(AgGe)2",0,5,3,102.648584816197,8.11959068879028,20.5297169632394,4,139,4.30452966382425,109.907017546698,-4.371134252,-4.371134252,-0.432719557666667,0,TRUE,5.09534299,FALSE,0,0,138
"mp-5566","KCuF3",0,10,3,127.649484463066,4.1533680042455,12.7649484463066,3,221,5.65059520368997,90.1397744255204,-4.271477252,-4.548677252,-2.3598687481,0.0021985480000008,FALSE,0.81343472,FALSE,0.0093765,0,66
"mp-5568","Nd3Co11B4",0,18,3,221.976461319817,8.41006459521642,12.3320256288787,6,191,5.13145664570675,90,-6.90062085833333,-6.90062085833333,-0.277648351342592,0.0199405966279062,FALSE,5.23720979,TRUE,6.7081877,14,135
"mp-5571","Ho2(Ni5B3)3",0,104,3,1031.80121774815,8.41734042302122,9.92116555527064,7,64,9.81824413405579,90,-6.41763602307692,-6.41763602307692,-0.418351643173077,0.113602792235579,FALSE,7.81927601,FALSE,0.0017064,0,189
"mp-5572","Ho2Te5O13",3.0071,40,3,608.63931354669,6.41611389186997,15.2159828386672,5,2,6.93044244603696,88.8122433038995,-6.21310635425,-6.65965635425,-2.20024133160417,0,TRUE,3.30568523,FALSE,0,0,275
"mp-5575","GdTaO4",0.2627,12,3,151.708080535475,8.80455813022786,12.6423400446229,1,15,5.08838906239936,111.966144380117,-10.8517033058333,-11.3097033058333,-3.68959418666667,0.0057823825000014,FALSE,2.95352735,TRUE,14,2,161
"mp-5577","Ce(GeRh)2",0,5,3,91.0501440111972,8.95845275310137,18.2100288022394,4,139,4.1736065227709,110.343505721178,-6.838483472,-6.838483472,-0.856931351,0,TRUE,7.60392146,TRUE,0.8274921,1,135
"mp-5578","LuB2Ru3",0,6,3,77.123440161955,10.7611351776424,12.8539066936592,6,191,5.43878729,90,-8.103232695,-8.103232695,-0.486075748055555,0,TRUE,6.50186952,FALSE,1.78e-05,0,164
"mp-5581","Mo(PO3)3",4.2428,78,3,1011.21165879702,3.27955199552364,12.9642520358592,1,9,11.8872416209884,69.9536402669948,-7.32401880410256,-8.04594188102564,-2.53780680169872,0,TRUE,1.6644164,TRUE,18.0000001,6,73
"mp-5584","Ga(MoSe2)4",0,13,3,273.015328595895,6.60019920638239,21.0011791227612,3,216,7.2817205788352,60,-6.30157432384615,-6.59203586230769,-0.870652148173077,0.0598705001648349,FALSE,4.74409712,TRUE,0.999174,4,107
"mp-5586","NaErO2",4.0544,16,3,209.299176118758,7.053076425622,13.0811985074224,1,15,5.83771945562579,104.828896013419,-6.793230236875,-7.136730236875,-3.19082485538793,0,TRUE,1.31092254,FALSE,4e-07,0,87
"mp-5587","Ba2ZnS3",2.0208,24,3,653.583895300014,4.43354530199525,27.2326623041672,7,62,4.23768742,90,-4.57905505708333,-4.83055505708333,-1.91271454197917,0,TRUE,2.04414281,FALSE,0,0,118
"mp-5588","BaSiF6",7.4159,8,3,104.467214755922,4.44119682656114,13.0584018444903,2,166,4.76330568167559,98.1296997258457,-5.8461709525,-6.1926709525,-3.841025105625,0,TRUE,-0.90705687,FALSE,0,0,115
"mp-5589","Sr(MnP)2",0,5,3,91.5528477119065,4.70565654039031,18.3105695423813,2,164,3.85172637722593,90,-6.796447774,-6.796447774,-0.628421963839081,0.0987156490000007,FALSE,5.15591785,TRUE,4.1806021,2,78
"mp-5590","YMgGa",0,9,3,202.120876717179,4.50871987291444,22.4578751907977,6,189,7.26296372000029,90,-4.21336132444444,-4.21336132444444,-0.515078929166667,0,TRUE,3.7331021,FALSE,7e-07,0,82
"mp-5591","U(NiGe)2",0,5,3,80.3126823686341,10.3523473804274,16.0625364737268,4,139,5.67057606071799,138.143622530008,-6.765287662,-6.765287662,-0.345739846000001,0.0168996872999995,FALSE,8.11668649,FALSE,0.0201167,0,152
"mp-5594","Sc2Si2O7",4.2788,11,3,127.040367922924,3.37333435358416,11.5491243566295,1,12,4.6914663393736,105.115933416867,-8.45674738636364,-8.89392920454545,-3.60825690920454,0,TRUE,2.66465528,FALSE,1.9e-06,0,83
"mp-5597","Ca(FeP)2",0,5,3,71.8987282436227,4.93587279511259,14.3797456487245,4,139,3.7962492767345,109.57519121193,-6.798333158,-6.798333158,-0.843883695333332,0,TRUE,6.87861488,FALSE,4.2e-06,0,61
"mp-5598","Sm2SO2",2.9166,5,3,88.8377477418911,6.81847262182636,17.7675495483782,2,164,3.90311716,90,-7.821691006,-8.197091006,-3.503691094125,0,TRUE,2.80101516,FALSE,0,0,86
"mp-5599","U5Re5Si9",0,76,3,1292.91497781092,12.1958062434,17.0120391817226,6,176,16.2833771275447,90,-9.20951683657895,-9.17588525763158,-0.359698507894736,0.0395701399624091,FALSE,10.34058694,TRUE,28.9296483,20,780
"mp-5601","HoCoSn",0,12,3,248.017911125956,9.17444554318637,20.6681592604964,7,62,4.57619835,89.9972839285562,-5.724945735,-5.724945735,-0.491512895,0,TRUE,6.20681861,TRUE,0.0003037,4,144
"mp-5602","Cr2HgSe4",0,14,3,318.28952966104,6.47357330279169,22.73496640436,3,227,7.6637958427014,59.9996143042481,-5.25223908142857,-5.52195336714286,-0.722893193482142,0,TRUE,3.23432529,TRUE,11.9855246,4,206
"mp-5603","NbCoTe2",0,16,3,381.349999931305,7.08960394452882,23.8343749957066,7,64,8.60677626402366,90,-6.251827575,-6.462827575,-0.588768919583334,0.0002412293749998,FALSE,5.89803302,TRUE,0.2505353,4,120
"mp-5605","Ce(SiAg)2",0,5,3,96.3425243191958,7.1015468702748,19.2685048638392,4,139,4.24064776695895,110.203708772572,-4.886917566,-4.858517566,-0.368750121666667,0.0337549226666666,FALSE,6.94442795,TRUE,0.9461056,1,119
"mp-5606","AlTlF4",4.2492,6,3,83.3640947578001,6.12230862078213,13.8940157929667,4,123,3.63600548,90,-5.26602084833333,-5.57402084833333,-3.28166504055556,0.0018602600000052,FALSE,0.89822793,FALSE,0,0,121
"mp-5610","Ca(AsRu)2",0,5,3,90.9998757942015,7.15421788674089,18.1999751588403,4,139,4.18150672195425,110.443907280536,-6.632903168,-6.632903168,-0.658374814,0,TRUE,6.3342492,FALSE,0,0,97
"mp-5611","BaUO4",2.1144,24,3,391.844984263507,7.447472308715,16.3268743443128,7,57,5.83258474,90,-8.71046164125,-9.16846164125,-3.66893834208333,0,TRUE,2.78559322,FALSE,0,0,172
"mp-5614","Li3BS3",2.8882,28,3,501.865512485605,1.69180820808443,17.9237683030573,7,62,6.13139567,90,-4.58295509107143,-4.79852651964286,-1.25345366657738,0,TRUE,0.80712934,FALSE,0,0,43
"mp-5615","CaAgAs",0.0206999999999997,9,3,192.725192115905,5.76075215477739,21.4139102351006,6,189,7.20327013,90,-3.95485841444444,-3.95485841444444,-0.789100318333334,0,TRUE,4.38115227,FALSE,0,0,100
"mp-5616","Sr2P2O7",5.1125,44,3,634.086036058228,3.65775316240523,14.4110462740506,7,62,5.39609935000001,90.0000138317733,-7.24000304340909,-7.67718486159091,-3.23787459806818,0,TRUE,1.03798642,FALSE,0,0,101
"mp-5618","Mg2As2O7",3.0504,11,3,130.063963342928,3.96353209172704,11.8239966675389,1,12,4.78271541431739,105.27048425195,-6.13332402363636,-6.57050584181818,-2.28454057920455,0,TRUE,1.58033482,FALSE,0,0,93
"mp-5620","TmB2Ru3",0,6,3,77.5801808806704,10.5686539031557,12.9300301467784,6,191,5.45122449,90,-8.09479410666667,-8.09479410666667,-0.485156342499999,0,TRUE,6.50633238,FALSE,1.53e-05,0,162
"mp-5621","NbCu3S4",1.6574,8,3,164.679537238155,4.15241184336141,20.5849421547694,3,215,5.48125339,90,-5.46481260375,-5.71631260375,-0.848222039062501,0,TRUE,3.03951651,FALSE,0,0,147
"mp-5622","Nd(CoP)2",0,5,3,73.7670568940439,7.29468583425642,14.7534113788088,4,139,3.88742664475195,110.301616982909,-6.94041806,-6.94041806,-0.978140452833334,0,TRUE,7.3661803,TRUE,1.7496936,2,102
"mp-5625","Ag2SO4",1.2289,14,3,190.793929518413,5.42736785948786,13.6281378227438,7,70,5.53940731707763,79.5168583921659,-5.09477238142857,-5.48734381,-1.2604414216369,0,TRUE,1.51506221,FALSE,0,0,87
"mp-5626","K3SbTe3",1.6343,28,3,1148.04486618767,3.5978188156902,41.0016023638454,3,198,10.47095485,90,-3.19600505321429,-3.37686219607143,-0.963988515928571,0,TRUE,1.26758854,FALSE,0,0,193
"mp-5627","Pr(FeSi)2",0,5,3,79.1151514295464,6.48071066795506,15.8230302859093,4,139,4.0177189951284,110.769349788706,-7.121068894,-7.092668894,-0.578352046999999,0,TRUE,6.29013072,FALSE,1.9e-06,0,99
"mp-5628","K(RuO2)4",0,13,3,152.124361271276,6.23692359620198,11.7018739439443,4,87,3.15151540539424,87.1957865120797,-7.04257867461538,-7.46534790538461,-1.48215415176923,0,TRUE,3.99995291,FALSE,0,0,71
"mp-5632","DyAsO4",3.6275,12,3,157.154755326242,6.36975134458107,13.0962296105201,4,141,5.9044306697283,106.572395922613,-7.23469038,-7.69269038,-2.850580365,0,TRUE,1.27569291,FALSE,0,0,123
"mp-5634","NdOF",4.5028,6,3,89.3613748369503,6.66137234451379,14.893562472825,2,166,6.96195609756282,33.0578862795772,-7.65086133166667,-8.03386133166667,-4.15842296125,0,TRUE,1.68012509,FALSE,0,0,77
"mp-5637","SrZnO2",2.0793,16,3,220.797261218253,5.5661177790307,13.7998288261408,7,62,3.34284254,90,-5.30330544375,-5.64680544375,-2.43615182229167,0,TRUE,1.68935523,FALSE,0,0,76
"mp-5639","Mg2SiO4",4.7454,14,3,135.504294628799,3.4482506933239,9.67887818777133,3,227,5.76531028759077,60,-6.81714855,-7.20971997857143,-3.15077241071429,0.0717060214285707,FALSE,3.19691726,FALSE,0.0001066,0,50
"mp-5640","ErSnAu",0.0060999999999999,3,3,73.2284362321049,10.9511198140759,24.409478744035,3,216,4.69603769629497,59.9999944618561,-4.79469228,-4.79469228,-0.844301391666667,0,TRUE,5.58556717,FALSE,5e-07,0,197
"mp-5641","Tm(MnGe)6",0,13,3,186.513539292067,8.3190304996476,14.347195330159,6,191,5.14187618000388,90,-7.03079973384615,-7.03079973384615,-0.324177094942528,0,TRUE,7.02463068,TRUE,12.7607723,7,254
"mp-5643","Yb2FeS4",0,14,3,324.267390821833,5.43004279766785,23.1619564872738,3,227,7.71150997993532,60,-5.14024051928571,-5.42766909071429,-1.4140923425,0.37710800142857,FALSE,2.17410701,TRUE,7.9995583,6,144
"mp-5646","NdSnAu",0,6,3,150.23847712994,10.1666732233813,25.0397461883233,6,186,4.74426267,90,-4.851229635,-4.851229635,-0.834029205833333,0,TRUE,6.13526293,FALSE,1.04e-05,0,189
"mp-5652","Y2Si2O7",4.6037,11,3,143.309170989545,4.00889078826351,13.028106453595,1,12,5.66003871825283,82.848653532958,-8.53944896,-8.97663077818182,-3.66659448132576,0.0129873500757664,FALSE,1.87405458,FALSE,0,0,101
"mp-5659","Ti3SiC2",0,12,3,144.367994041836,4.50211441599819,12.030666170153,6,194,3.0695225,90,-8.75201761,-8.74018427666667,-0.811996765833335,0,TRUE,7.80301839,FALSE,2e-07,0,64
"mp-5660","BaIrO3",0,5,3,67.7823160045935,9.24907275737856,13.5564632009187,3,221,4.077295,90,-6.587939584,-7.000139584,-1.88064453325,0.143234261625,FALSE,4.9061748,FALSE,0.003885,0,149
"mp-5662","Ce2Fe17N3",0,22,3,273.068966066774,7.73273471065274,12.4122257303079,2,166,6.52917264065639,83.3138811211127,-8.44488805727273,-8.49411533,-0.272932436590908,0.0611058402272757,FALSE,6.16083813,TRUE,36.7439604,19,72
"mp-5663","BaCeO3",2.299,5,3,89.5661985793673,6.03361351774143,17.9132397158735,3,221,4.474193,90,-7.677264422,-8.089464422,-3.55103837625,0.0403338959999999,FALSE,3.19712188,FALSE,0.0001896,0,130
"mp-5666","Ho(MnGe)2",0,5,3,90.1064081705892,7.74162359054538,18.0212816341178,4,139,4.05578612370573,109.145768541257,-6.910491016,-6.910491016,-0.479991983172414,0,TRUE,5.79508741,TRUE,7.3370455,3,124
"mp-5669","Ca19Ag8N7",0,34,3,776.081704084838,3.68548334977838,22.8259324730835,3,225,10.3151167462439,60,-4.049068585,-4.12339211441176,-0.619794754950979,0.0396437073529414,FALSE,3.10810259,FALSE,1.6277719,0,371
"mp-5670","LiTi2O4",0,14,3,147.957901384974,3.74115016556868,10.5684215274982,3,227,5.93692474486641,59.9971373052626,-8.20960338071429,-8.60217480928571,-3.24693741714286,0,TRUE,5.03116805,TRUE,1.1396457,4,49
"mp-5671","Sr(CoP)2",0,5,3,82.5339107285752,5.38063031317129,16.506782145715,4,139,3.79453839221815,107.4440032163,-6.180790118,-6.180790118,-0.834243306666667,0,TRUE,5.9330408,TRUE,1.1419547,2,80
"mp-5673","NiMoP8",0,20,3,296.918323578605,4.50117007513578,14.8459161789302,2,163,6.25150016302199,90,-6.26898783,-6.26898783,-0.275767145666666,0.0109937029166653,FALSE,8.97341689,FALSE,0.0001267,0,175
"mp-5676","MnSbPt",0,3,3,59.7585652902123,10.3308807195218,19.9195217634041,3,216,4.38838834891806,60,-6.81816761333333,-6.88216761333333,-0.428117662643678,0,TRUE,6.68594314,TRUE,4.0966095,1,154
"mp-5677","Tb(MnSi)2",0,5,3,79.3016263146308,6.80477131764403,15.8603252629262,4,139,3.88422141540018,109.115600487087,-7.39090876,-7.36250876,-0.600702211172414,0,TRUE,6.37750847,TRUE,4.5423586,3,104