"material_id","formula_pretty","band_gap","nsites","nelements","volume","density","density_atomic","crystal_symmetry","symmetry_number","sides_abc","angles_abc","uncorrected_energy_per_atom","energy_per_atom","formation_energy_per_atom","energy_above_hull","is_stable","efermi","is_magnetic","total_magnetization","num_magnetic_sites","atomic_number"
"mp-3228","HgSO4",1.3525,12,3,153.945507781149,6.39970907379453,12.8287923150958,7,31,4.7876809,90,-5.0518578775,-5.5098578775,-1.47204369802083,0,TRUE,0.91787753,FALSE,0,0,120
"mp-3236","Pr2SO2",2.86,5,3,95.7051288848003,6.00120144618148,19.1410257769601,2,164,4.00789086,90,-7.76460553,-8.14000553,-3.421677770125,0,TRUE,2.92862535,FALSE,0,0,83
"mp-3237","Na2CuF4",0.6487,14,3,165.632369302792,3.71982601870039,11.830883521628,1,14,3.25077648247735,90,-4.29529371071429,-4.55929371071429,-2.50355469258621,0,TRUE,0.18645937,TRUE,2.0000003,2,67
"mp-3239","Er(CoSi)2",0,5,3,70.7853604224098,8.00640111885519,14.157072084482,4,139,3.83213160292208,110.273967954862,-6.761766208,-6.733366208,-0.806368116,0,TRUE,6.68841904,FALSE,5.8e-06,0,109
"mp-3241","Sr(CuGe)2",0,5,3,92.0946723851628,6.49093768598687,18.4189344770326,4,139,4.24251299741785,110.955335856754,-4.193610096,-4.193610096,-0.366817595333333,0,TRUE,5.70690102,FALSE,0,0,99
"mp-3245","SnP7Au3",0.0264999999999995,22,3,426.388101779494,7.21580469518653,19.3812773536134,1,11,11.04866531,71.2040206289797,-4.80608095545455,-4.80608095545455,-0.103868646212121,0,TRUE,6.24872178,FALSE,0,0,298
"mp-3247","Cs2TiS3",1.2724,12,3,378.619995654888,3.59521407697157,31.551666304574,7,63,6.56259322,108.499929773568,-5.05691579083333,-5.30841579083333,-1.6258080639284,0,TRUE,1.96318898,FALSE,0,0,109
"mp-3248","TbAsO4",3.6466,12,3,158.974681475338,6.22215445200465,13.2478901229448,4,141,5.92748239935733,106.542877554595,-7.2363116325,-7.6943116325,-2.84760507416667,0,TRUE,1.18293764,FALSE,0,0,122
"mp-3249","La4Ti3O12",2.9184,19,3,238.908881693471,6.19440534364581,12.5741516680774,2,148,9.36623490754556,34.8024531827297,-8.75349632684211,-9.18739106368421,-3.77735058973684,0.0371129352631598,FALSE,5.94062818,FALSE,0.0006007,0,215
"mp-3250","Ni2SbTe2",0,10,3,214.845161954784,7.64161656124662,21.4845161954784,6,194,3.90426128,90,-4.655408723,-4.862608723,-0.467431445666666,0,TRUE,8.08232919,FALSE,0.0001181,0,131
"mp-3252","SrTe3O8",2.1871,24,3,318.068102982764,6.24829593617628,13.2528376242818,4,84,6.85404138000161,90,-5.64649791958333,-6.10449791958333,-1.88008785097222,0.0050947058333337,FALSE,4.6466872,FALSE,0,0,198
"mp-3255","SrCu2O3",0,12,3,158.667460221062,5.49880296421852,13.2222883517552,7,59,3.5143524,90,-5.461475815,-5.804975815,-1.68364699381944,0.0168204791666504,FALSE,3.43457007,FALSE,5e-07,0,83
"mp-3257","KAuSe5",0.9706,28,3,891.963564010242,4.69784104637692,31.8558415717944,7,72,11.1514444906508,130.488014782021,-3.4592906875,-3.79643354464286,-0.673028068174107,0.0012265067857137,FALSE,0.94038965,FALSE,0.0006186,0,234
"mp-3258","Ca3Ru2O7",0,24,3,291.571590833383,4.94758779611972,12.1488162847243,7,36,10.1235134868187,90,-6.93753920583333,-7.33828920583333,-2.40558706427083,0.0017321845833251,FALSE,4.23710562,TRUE,7.9999306,6,132
"mp-3261","Dy(BO2)3",5.4934,160,3,1471.64628220385,5.25234510672265,9.19778926377406,7,62,7.438059,90,-8.22006638175,-8.63226638175,-3.19975693975,0,TRUE,2.75461139,FALSE,0.0048433,0,79
"mp-3262","Tm(CoSi)2",0,5,3,70.3065857622068,8.10048922672124,14.0613171524414,4,139,3.82344211070555,110.273598854405,-6.741981098,-6.713581098,-0.804959683333333,0,TRUE,6.67855749,FALSE,0,0,110
"mp-3263","USO",0,6,3,99.3253203513846,9.56592168577449,16.5542200585641,4,129,3.83489513,90,-9.17648364666667,-9.57315031333333,-2.78163411729167,0,TRUE,9.820946,TRUE,3.9999976,2,116
"mp-3264","Th(NiGe)2",0,5,3,83.6881392114549,9.8159279702857,16.737627842291,4,139,4.16251652498957,111.589856135848,-6.350245762,-6.350245762,-0.706208298,0,TRUE,8.00601375,FALSE,0,0,150
"mp-3267","TlSb5S8",1.4316,56,3,1547.75981096156,4.59059372582471,27.6385680528849,1,7,19.675966,47.1401618716374,-4.27667027071429,-4.56409884214286,-0.557009679166667,0.0013783125000079,FALSE,3.92563223,FALSE,0.0093716,0,397
"mp-3268","YbB2Ru3",0,6,3,77.2074274862427,10.7079841031303,12.8679045810404,6,191,5.51669313,90,-7.47670417666667,-7.47670417666667,-0.356437603055555,0,TRUE,5.77945719,FALSE,0.0001012,0,163
"mp-3269","NaTh2F9",6.2533,24,3,331.214933034354,6.5982547561884,13.8006222097648,4,121,7.55002266572929,108.953389366379,-6.68076900916667,-7.02726900916667,-4.24780630075431,0.006072217916663,FALSE,-0.33768782,FALSE,0,0,173
"mp-3271","Ti3AlC",0,5,3,72.5084437620441,4.1816261701514,14.5016887524088,3,221,4.16993733,90,-7.924206462,-7.924206462,-0.592062987499999,0,TRUE,6.78068226,FALSE,1.39e-05,0,63
"mp-3273","Si5P6O25",5.6022,36,3,430.863226812305,2.79897388388114,11.9684229670085,2,148,9.23551686790932,50.4059530180968,-7.48687871944444,-7.96396205277778,-2.87302808135417,0,TRUE,1.39988176,FALSE,0,0,139
"mp-3274","NiGePd",0,6,3,80.9873136209638,9.74964574735028,13.497885603494,4,129,3.60945918,90,-5.65693098666667,-5.65693098666667,-0.462582205,0,TRUE,7.45568832,FALSE,0,0,106
"mp-3275","PrFeSi2",0,8,3,140.074659932262,5.99665352598629,17.5093324915328,7,63,4.01693859,103.641608834627,-6.6642085,-6.6287085,-0.60331774375,0,TRUE,6.41160181,FALSE,0.0002623,0,99
"mp-3276","Nb4Cr2Si5",0,22,3,318.853459122018,6.41653477694106,14.4933390510008,7,72,9.38583207847472,149.366267840797,-8.41766594409091,-8.38539321681818,-0.491038194090909,0.0345780919696974,FALSE,8.12419192,FALSE,0.0189906,0,203
"mp-3277","BAsO4",4.2615,6,3,68.7210826402776,3.61799955701086,11.4535137733796,4,82,4.49186970474093,118.832988920035,-6.86267171333333,-7.32067171333333,-2.13312754319444,0,TRUE,-0.00840492,FALSE,0,0,62
"mp-3278","Pr(SiPd)2",0,5,3,89.5042843343697,7.60506536100583,17.9008568668739,4,139,4.24174229022709,111.414447224033,-6.134300974,-6.105900974,-0.907639887,0,TRUE,6.0225546,FALSE,1.1e-06,0,119
"mp-3281","Al5BO9",4.9385,30,3,326.83671775137,2.94385676401143,10.894557258379,7,36,8.00762465186053,90,-7.61700545166667,-8.02920545166667,-3.36737416352778,0,TRUE,2.53200228,FALSE,0,0,121
"mp-3282","Tb3Fe5O12",1.6714,80,3,976.348997373883,6.44925462946411,12.2043624671735,2,148,10.8221465763544,109.453369828645,-7.341802718375,-8.318002718375,-2.537329274125,0.0242087287812502,FALSE,3.06247801,TRUE,100.0000004,68,234
"mp-3283","RbNbO3",3.3093,20,3,354.334644904951,4.24344823171389,17.7167322452475,5,2,5.14568613631406,114.210076514141,-7.611995444,-8.024195444,-2.83981439475,0,TRUE,-0.21774262,FALSE,0,0,94
"mp-3284","CeSi2Pt",0,8,3,151.305355006324,8.5904009809454,18.9131693757905,7,63,4.21110361,104.286400102107,-6.71217957375,-6.67667957375,-0.96296494,0,TRUE,8.32442654,TRUE,1.5870337,2,150
"mp-3285","Na2Ta4O11",3.4629,34,3,409.674341556123,7.66696213033654,12.049245339886,2,167,12.7504252035329,28.2265760013993,-8.89182677058824,-9.33635618235294,-3.1899010687855,0,TRUE,1.61091983,FALSE,0,0,230
"mp-3286","Ce(AlZn)2",0,5,3,96.2109224076614,5.60751602639031,19.2421844815323,4,139,4.2013520555383,109.779469473929,-3.571563486,-3.571563486,-0.382817879,0,TRUE,5.92406846,TRUE,1.0078456,1,101
"mp-3288","CsNO2",2.3632,12,3,239.556830332098,3.72047782558346,19.9630691943415,2,152,5.90621212,90,-5.7098199325,-6.0533199325,-1.27200125260776,0,TRUE,0.32511465,FALSE,0,0,70
"mp-3289","LaMgNi4",0,6,3,88.4747416200123,7.46956796955466,14.7457902700021,3,216,5.00165987557033,59.9999885973348,-5.25461765333333,-5.25461765333333,-0.3118120075,0,TRUE,7.65360626,TRUE,0.7138742,4,153
"mp-3291","AgTe4Au",0,12,3,352.675235053878,7.67691659533916,29.3896029211565,1,13,4.61388172,111.051096316561,-3.18758077666667,-3.46891411,-0.355637180555555,0,TRUE,5.15467587,FALSE,0,0,282
"mp-3292","Tb(CoSi)2",0,5,3,72.3680081885339,7.64008366862556,14.4736016377068,4,139,3.85815217857315,110.244877085964,-6.766650724,-6.738250724,-0.797923174,0,TRUE,6.66964729,FALSE,1.8e-06,0,106
"mp-3296","Yb(GePd)2",0,5,3,91.4859703085482,9.64095289846691,18.2971940617097,4,139,4.26586869757067,111.334032178496,-4.988880082,-4.988880082,-0.75979456,0,TRUE,4.738802,FALSE,1e-07,0,148
"mp-3297","Li10Zn4O9",2.329,46,3,431.463469079794,3.65650179471033,9.37964063216942,4,137,9.66072755,90,-4.70830428869565,-4.97713037565217,-1.99241726661232,0,TRUE,0.31932731,FALSE,0,0,154
"mp-3299","Sr(FeP)2",0,5,3,81.4482963309591,5.32642602225046,16.2896592661918,4,139,3.79002160017013,107.587138336367,-6.715007004,-6.715007004,-0.823778826666667,0,TRUE,5.9006658,FALSE,1e-07,0,79
"mp-3301","Dy(SiPd)2",0,5,3,84.6192069870887,8.46782779797219,16.9238413974177,4,139,4.12913714044302,111.010792157529,-6.108829356,-6.080429356,-0.916992052,0,TRUE,6.02894999,FALSE,1.9e-06,0,126
"mp-3303","Ce(AlGa)2",0,5,3,97.9938747802597,5.65169426786405,19.5987749560519,4,139,4.18242204158396,109.275977509869,-4.32567142,-4.32567142,-0.429584848,0,TRUE,6.73280193,TRUE,0.9797407,1,102
"mp-3307","BaSO4",4.5086,6,3,101.205822238848,3.82935032752872,16.8676370398081,3,216,5.23086484023436,60,-6.42501574833333,-6.88301574833333,-2.57598580635417,0.132132953333334,FALSE,0.85735711,FALSE,0,0,96
"mp-3311","SrUO4",2.0862,24,3,358.524773159048,7.21872852822157,14.9385322149604,7,57,5.53083775,90,-8.67375417916667,-9.13175417916667,-3.67047779444444,0,TRUE,3.04152716,FALSE,0,0,154
"mp-3312","Cs(SbSe2)2",1.122,14,3,459.172350899685,5.00698191032234,32.7980250642632,5,2,6.80913312925605,80.3590614834622,-3.813781495,-4.08349578071429,-0.778202814615148,0,TRUE,2.64755886,FALSE,0,0,140
"mp-3316","BaCeO3",2.2112,10,3,172.267111118643,6.27406848552765,17.2267111118643,7,74,6.23030760410079,60.7076991613675,-7.716415543,-8.128615543,-3.59018949725,0.0011827750000019,FALSE,2.8464305,FALSE,0,0,130
"mp-3317","SmRhO3",0.7331,20,3,237.735501802167,8.4170877198603,11.8867750901084,7,62,5.29624651,90,-7.502045706,-7.914245706,-2.52965367825,0,TRUE,4.58860257,FALSE,1e-07,0,123
"mp-3318","Na2BeF4",6.7864,28,3,338.230576756572,2.57228385773585,12.0796634555919,7,62,4.84992512,90,-5.0109093225,-5.2749093225,-3.27056941937192,0,TRUE,-2.76409257,FALSE,0,0,42
"mp-3319","Mg(RhO2)2",1.1521,14,3,156.574661730294,6.23839282066766,11.1839044093067,3,227,6.04985357774258,60.0000867221201,-6.41261150785714,-6.80518293642857,-1.64580427428571,0.0109376910714287,FALSE,4.38552807,FALSE,0,0,65
"mp-3323","SrZrO3",3.2144,5,3,73.9607474054056,5.09297631875959,14.7921494810811,3,221,4.197594,90,-8.211352264,-8.623552264,-3.60810022058333,0.0549089115000001,FALSE,2.0897287,FALSE,0,0,94
"mp-3325","Ce(NiGe)2",0,5,3,83.2193435460358,8.03703257265594,16.6438687092072,4,139,5.65984952323178,137.029582034809,-6.015280398,-6.015280398,-0.667396753,0,TRUE,7.87755607,TRUE,0.7812427,1,118
"mp-3328","Ho2Al3Si2",0,7,3,130.701398053867,5.93285402816356,18.6716282934096,1,12,4.02247162,100.164274522412,-5.00876473,-4.98847901571428,-0.523881688571428,0,TRUE,6.54797123,FALSE,0,0,107
"mp-3332","NaCrSe2",0.7808,4,3,82.7437327780858,4.67406148834394,20.6859331945214,2,166,7.1055371015432,30.6655590703542,-5.300158535,-5.536158535,-1.04430960530981,0,TRUE,3.33552856,TRUE,2.9999998,1,69
"mp-3333","Eu(NiGe)2",0,5,3,84.7237671003539,8.12653479867204,16.9447534200708,4,139,4.10629908827565,110.719477580421,-6.796193396,-6.796193396,-0.583527221999999,0,TRUE,5.74307426,TRUE,7.2087299,3,123
"mp-3334","Tm2Sn2O7",2.6576,22,3,273.952531232262,8.33182516718654,12.4523877832846,3,227,7.29004325393403,60,-7.28847484272727,-7.72565666090909,-3.03496252132576,0,TRUE,4.22702966,FALSE,0,0,167
"mp-3335","Sm2Ti2O7",2.7306,22,3,268.518401660565,6.28858768027557,12.205381893662,3,227,7.24151915416169,60,-8.73028745681818,-9.167469275,-3.72610770390151,0.0102303943181834,FALSE,2.82596205,FALSE,0,0,132
"mp-3336","LaGaO3",3.3802,10,3,121.629702795951,7.00714712394499,12.1629702795951,2,167,5.5285934897263,60.7941636547196,-7.241805623,-7.654005623,-3.09317177075,0.0380710381428555,FALSE,5.83353106,FALSE,0.0002577,0,104
"mp-3337","Ti6Si7Ni16",0,29,3,340.916143455237,6.93065615834099,11.7557290846634,3,225,7.8411729721078,60.0018638556556,-6.83544190482759,-6.8183039737931,-0.68615345,0,TRUE,8.79196502,FALSE,2.1e-06,0,194
"mp-3338","NaGaO2",2.8582,16,3,209.774288626748,3.94878579643104,13.1108930391718,7,33,5.2849664,90,-5.439618308125,-5.783118308125,-2.22211862351293,0,TRUE,0.09320264,FALSE,0,0,50
"mp-3340","TaAlCo2",0,4,3,51.8983610365595,10.4241570853024,12.9745902591399,3,225,4.186870597849,60.0000023217227,-7.934380045,-7.934380045,-0.479382782500001,0,TRUE,6.98593221,TRUE,2.0000056,2,113
"mp-3342","ZnPS3",1.98,10,3,226.038064180741,2.82946058946688,22.6038064180741,1,12,6.01046042059907,82.3852895454417,-4.221997902,-4.523797902,-0.707318758541666,0.0255224345306146,FALSE,2.35090873,FALSE,0.0001213,0,77
"mp-3344","CeAlRh",0,24,3,475.4171475588,7.54454223619362,19.80904781495,7,62,4.21950401,90,-6.52922541083333,-6.52922541083333,-0.848234459166667,0,TRUE,7.78487171,TRUE,6.294926,8,116
"mp-3345","Cu3AsS4",0,16,3,288.415655562116,4.5347942691824,18.0259784726323,7,31,6.12100792,90,-4.382935944375,-4.634435944375,-0.4466187090625,0,TRUE,4.95383983,FALSE,0,0,139
"mp-3346","HoZrSb",0,6,3,150.328485740814,8.34893651851899,25.0547476234691,4,139,4.26123269833828,103.988294615199,-6.54165912166667,-6.60565912166667,-0.852622208333333,0,TRUE,5.60548242,TRUE,0.7713195,2,158
"mp-3347","Be2SiO4",0,42,3,370.22802541699,2.96311029329001,8.81495298611881,2,148,7.70666776130336,108.006596940699,-7.45490732547619,-7.84747875404762,-3.17735038190476,0,TRUE,2.59421827,FALSE,0,0,42
"mp-3348","LiBIr",0,12,3,147.655513096167,9.44527488243136,12.3046260913473,7,70,5.52656439722874,106.339503316838,-6.32274399833333,-6.32274399833333,-0.513827725833334,0,TRUE,5.07704536,FALSE,0,0,85
"mp-3349","Sr3Ti2O7",1.8405,12,3,155.591363599448,5.02234011686656,12.9659469666207,4,139,3.9086759940047,100.674026774484,-7.71711136,-8.11786136,-3.49400424565972,0,TRUE,2.91489648,FALSE,0,0,146
"mp-3352","ErSiPd2",0,16,3,275.154309421713,9.8534718217588,17.1971443388571,7,62,5.47808234,90,-6.080838588125,-6.080838588125,-0.992638473125001,0,TRUE,5.69010277,FALSE,0,0,128
"mp-3354","Ho3(GePd)4",0,11,3,202.464538071469,9.93242687878624,18.4058670974063,7,71,4.14350026783021,116.006852845199,-5.71063622,-5.71063622,-0.896193922727272,0.0016688227272734,FALSE,5.31109431,FALSE,5e-07,0,304
"mp-3359","Ba2SnO4",2.4422,7,3,116.58253492892,6.51441319941897,16.6546478469886,4,139,4.17178727283049,106.557630223543,-6.28115409,-6.67372551857143,-2.72597172142857,0,TRUE,2.99817658,FALSE,1e-07,0,130
"mp-3361","Ba3Al2F12",6.7238,68,3,958.384691371319,4.80929815350926,14.0938925201665,7,58,9.50439363,90,-5.87687970985294,-6.20299735691176,-4.07441946926471,0,TRUE,6.24062895,FALSE,0,0,125
"mp-3363","Sc2Ni2Sn",0,10,3,169.069022306802,6.40389408792045,16.9069022306802,4,127,3.39105258,90,-6.259160797,-6.259160797,-0.612204112,0,TRUE,6.81810632,FALSE,1e-07,0,99
"mp-3368","LiNb3O8",2.7464,48,3,560.920485082244,4.89831176037004,11.6858434392134,1,14,5.05174315,72.6696205826727,-8.50568453958333,-8.96368453958333,-2.98148889986111,0,TRUE,1.01808657,FALSE,0,0,141
"mp-3370","Y2Sn2O7",2.7501,22,3,281.524798896179,6.21957187550439,12.7965817680081,3,227,7.35660127777454,60,-7.62954565318182,-8.06672747136364,-3.01409956996212,0,TRUE,4.18724165,FALSE,0,0,137
"mp-3372","Rb2SO4",4.9943,28,3,483.833843832406,3.66539833840524,17.2797801368716,7,62,5.96313236,90,-5.57110378357143,-5.96367521214286,-2.265921946875,0,TRUE,-0.11980954,FALSE,0,0,77
"mp-3374","Nd4Au2O9",1.9634,60,3,882.64103648949,8.38994722247715,14.7106839414915,7,60,6.15099162,90,-7.03449965883333,-7.44669965883333,-2.77066285008333,0,TRUE,2.34852558,FALSE,0,0,323
"mp-3375","Nd4Ge3Rh4",0,22,3,452.462719121631,8.85578813270137,20.5664872328014,1,15,10.9382845909105,70.6774103039109,-6.54952505136364,-6.54952505136364,-0.876897344545454,0,TRUE,5.45304964,FALSE,5e-07,0,379
"mp-3376","Sr2SnO4",2.578,7,3,104.366761468052,5.69516544573111,14.9095373525788,4,139,4.06418315703507,107.022713517515,-6.26294724714286,-6.65551867571429,-2.77333101761905,0.0135095171428574,FALSE,3.18353639,FALSE,0,0,112
"mp-3378","SrHfO3",4.1704,20,3,270.91215539489,7.70122605209976,13.5456077697445,7,62,5.76053461,90,-8.698864951,-9.111064951,-3.81371522758333,0,TRUE,2.09226381,FALSE,0,0,126
"mp-3379","K2SbF5",4.6778,16,3,266.682678100334,3.67308220388677,16.6676673812709,7,63,6.2239583434696,90,-4.62027698875,-4.90902698875,-2.9206277423125,0.0052850506249999,FALSE,-0.38245248,FALSE,0,0,106
"mp-3380","LaRhC2",0,16,3,245.637508029571,7.1882350393935,15.3523442518482,4,76,3.991291,90,-8.01985461875,-8.01985461875,-0.33044312875,0.0394830349999999,FALSE,8.11922664,FALSE,0.0002685,0,108
"mp-3382","CaSiO3",3.5146,10,3,94.0063967620323,4.10378543453704,9.40063967620323,4,127,5.092994,90,-7.247078372,-7.659278372,-3.20508156325,0.243715751666667,FALSE,6.34687789,FALSE,1.5e-06,0,50
"mp-3384","Er3Al5O12",4.7457,80,3,874.887752729373,6.29132752834088,10.9360969091172,3,230,10.4357758565816,109.471220634491,-7.89034531425,-8.30254531425,-3.7129803085,0,TRUE,3.51305474,FALSE,0.0006121,0,188
"mp-3385","Sr(PPd)2",0,5,3,88.2815929441631,6.81673077662296,17.6563185888326,4,139,4.25239767358668,111.766295775852,-5.401471912,-5.401471912,-0.826299494666667,0,TRUE,5.79267779,FALSE,2e-07,0,99
"mp-3387","CaSiO3",3.6891,10,3,93.9518266932576,4.10616903750977,9.39518266932576,4,140,5.11517934551361,120.472760624788,-7.249493698,-7.661693698,-3.20749688925,0.241300425666667,FALSE,6.22700127,FALSE,0,0,50
"mp-3388","U(SiRu)2",0,5,3,82.8371273305787,9.94954602395398,16.5674254661157,4,139,4.16377965242057,111.77419877735,-8.786871956,-8.758471956,-0.620301726,0,TRUE,9.51005104,TRUE,2.3267093,3,150
"mp-3390","Y(CuSi)2",0,5,3,77.7577431336278,5.81224441352314,15.5515486267256,4,139,3.95456728224769,110.280470326889,-5.700556228,-5.672156228,-0.569052125333334,0,TRUE,7.43007008,FALSE,0,0,82
"mp-3392","Ba(TlHg)2",0,20,3,641.013495541311,9.81561124999714,32.0506747770656,4,136,11.092648,90,-1.7706963135,-1.7706963135,-0.320371920833333,0.0022009218333292,FALSE,3.87204784,FALSE,0.0118895,0,217
"mp-3393","Sr3Al2O6",4.2291,264,3,4095.93442850991,4.0166826767881,15.5149031382951,3,205,15.99991462,90,-6.80896668049242,-7.1836939532197,-3.34371538162879,0,TRUE,1.81958053,FALSE,0.0037027,0,129
"mp-3395","SrSeO3",3.7027,10,3,153.211821316442,4.65127926656231,15.3211821316442,1,11,4.46450301595492,90,-5.90990198,-6.32210198,-2.31700776705208,0,TRUE,1.67741925,FALSE,0,0,88
"mp-3397","Ba2TiO4",4.144,28,3,504.552849334289,5.08830134337264,18.0197446190818,1,14,7.72761598,62.5290306564583,-7.51013205928571,-7.90270348785714,-3.39981823904762,0,TRUE,1.0729965,FALSE,0,0,102
"mp-3398","Ho2Ni2Pb",0,5,3,101.55817269621,10.7006212528764,20.311634539242,7,65,3.63366665,105.738686757724,-5.412611702,-5.412611702,-0.525064068,0,TRUE,5.79789884,FALSE,1e-07,0,177
"mp-3400","Lu(MnGe)6",0,13,3,185.60001526257,8.41395138483297,14.2769242509669,6,191,5.1310681100359,89.9999805757165,-7.03271577846154,-7.03271577846154,-0.322622747506633,0,TRUE,7.03215875,TRUE,12.6989202,7,256
"mp-3402","UTeN",0,6,3,128.281752670326,9.82836215369772,21.380292111721,4,129,3.86543982,90,-8.80678358833333,-9.06778358833333,-1.47737997888889,0,TRUE,8.79999014,TRUE,1.9998262,2,151
"mp-3404","RbSO3",5.0206,30,3,572.751582723195,2.87947550587083,19.0917194241065,2,150,10.1230992571354,89.9985346756113,-5.65758162833333,-6.06978162833333,-2.07837161370833,0.0069709532291595,FALSE,-1.26804269,FALSE,0,0,69
"mp-3405","NaAl11O17",4.5454,58,3,610.396019795434,3.21977193466184,10.5240693068178,6,194,5.59120502855401,90.0000700037835,-7.32521074241379,-7.72793488034483,-3.36181186259661,0,TRUE,3.62667574,FALSE,0,0,11
"mp-3406","U(SiPt)2",0,5,3,85.3580174543451,13.3135666030461,17.071603490869,4,139,4.055574,109.99845414619,-7.571148704,-7.571148704,-0.714286161999999,0.0620939200000005,FALSE,9.92394844,TRUE,2.2821607,1,184