"material_id","formula_pretty","band_gap","nsites","nelements","volume","density","density_atomic","crystal_symmetry","symmetry_number","sides_abc","angles_abc","uncorrected_energy_per_atom","energy_per_atom","formation_energy_per_atom","energy_above_hull","is_stable","efermi","is_magnetic","total_magnetization","num_magnetic_sites","atomic_number"
"mp-1391","Ag2F",0,3,2,44.4813360355847,8.76291824266332,14.8271120118616,2,164,2.99510106,90,-3.22810163666667,-3.38210163666667,-0.856571311944444,0,TRUE,2.00336363,FALSE,0,0,56
"mp-1392","ZnP2",0.748,24,2,469.906490050959,3.60038412690059,19.5794370854566,1,14,7.25615365,102.360903977136,-4.27320924166667,-4.27320924166667,-0.244426367222222,0.0040558670833332,FALSE,4.09045083,FALSE,0,0,45
"mp-1393","Sn4Au",0,10,2,255.135059221052,8.74486678882084,25.5135059221052,7,68,6.56703733,118.488949996324,-3.937203868,-3.937203868,-0.0747699840000002,0.0049967017500005,FALSE,7.40560273,FALSE,1e-07,0,229
"mp-1394","Rb2O",1.3192,6,2,154.623607662615,4.01507732366696,25.7706012771025,3,225,4.77067119,90,-3.20400850333333,-3.43300850333333,-1.13042288458333,0.0031695866666665,FALSE,0.96480812,FALSE,0,0,45
"mp-1395","VRu",0,2,2,27.0765243654537,9.32250502005064,13.5382621827269,3,221,3.00228092,90,-9.412853945,-9.412853945,-0.233699639999999,0,TRUE,7.87583904,TRUE,0.876704,2,67
"mp-1397","Rb2Te",1.7451,12,2,559.955035193147,3.5412131004403,46.6629195994289,7,62,5.54755469,90,-2.67936547916667,-2.82003214583333,-1.11857413305556,0.0191995108333329,FALSE,0.45092439,FALSE,0,0,89
"mp-1399","AlAu",0,8,2,137.655892937724,10.8059182538353,17.2069866172156,1,11,3.50319356,91.5181435355457,-3.90526697,-3.90526697,-0.395538055,0,TRUE,6.82747208,FALSE,0,0,92
"mp-1400","HfW2",0,6,2,109.261393702486,16.6012274101952,18.2102322837477,3,227,5.36612224389071,60.0000008528165,-12.13067937,-12.13067937,-0.172862873333334,0,TRUE,5.63953352,FALSE,1.8e-06,0,146
"mp-1401","ZrZn2",0,6,2,99.5534987301056,7.4072618266403,16.5922497883509,3,227,5.20224307742647,59.9999831925152,-3.991615185,-3.991615185,-0.302552568333333,0,TRUE,3.58751394,TRUE,2.2070734,2,70
"mp-1402","SmNi2",0,6,2,92.6889580933021,9.59346249009708,15.448159682217,3,227,5.0798115768689,60.0000301325662,-5.78942206666667,-5.78942206666667,-0.363135568333334,1.133360155,FALSE,6.02553657,FALSE,4e-07,0,90
"mp-1403","Sm2S3",0.7441,20,2,458.842118198805,5.74570500377623,22.9421059099402,7,62,3.98836771,90,-6.4348026465,-6.7366026465,-2.367298272375,0,TRUE,3.89522921,FALSE,0,0,94
"mp-1404","CdAu",0,4,2,75.5595668757958,13.5981070537026,18.889891718949,7,51,3.0346084,90,-2.2735289325,-2.2735289325,-0.1751430525,0,TRUE,3.67207693,FALSE,0,0,127
"mp-1405","TbGe",0,4,2,91.214691926041,8.4311705061216,22.8036729815102,7,63,4.29622219,90,-5.5037965675,-5.5037965675,-0.87509959,0,TRUE,4.97193487,FALSE,3.8e-06,0,97
"mp-1406","MnTe",0,2,2,50.8333279323662,5.96285089314985,25.4166639661831,3,225,4.1580323104472,59.999995731404,-6.18926678,-6.40026678,-0.24760618729885,0.0557853467672417,FALSE,6.3305977,TRUE,4.9899057,1,77
"mp-1407","Rh3Se8",0,11,2,218.402568248441,7.14993939342127,19.8547789316765,2,148,6.02267955019766,90.746690173339,-4.93394798636364,-5.27722071363636,-0.726292038068182,0,TRUE,5.13895075,FALSE,0,0,328
"mp-1408","MgHg",0,2,2,40.9587579126532,9.11763325878689,20.4793789563266,3,221,3.44706066,90,-1.16729954,-1.16729954,-0.2153193325,0,TRUE,3.99572306,FALSE,0,0,92
"mp-1409","TiNi3",0,16,2,182.057239496895,8.17046496988164,11.3785774685559,6,194,5.05360022,90,-6.791770656875,-6.791770656875,-0.482795142708333,0,TRUE,8.16614808,FALSE,0,0,78
"mp-1410","DyN",0.0430999999999994,2,2,29.2152283989312,10.0323114666243,14.6076141994656,3,225,3.45707071295839,59.9999775568382,-8.16987331,-8.35037331,-1.8787324275,0,TRUE,3.9806888,FALSE,0,0,73
"mp-1411","TaS2",0,3,2,110.674338715993,3.67710707668046,36.8914462386642,7,42,3.34350644728301,85.8509962136171,-7.75568266,-8.09101599333333,-1.38079020541667,0.0030056499999986,FALSE,-0.10860209,TRUE,0.6411752,1,89
"mp-1412","Ti3Sb",0,8,2,143.134369429326,6.15704402805384,17.8917961786658,3,223,5.23097607,90,-7.3336459775,-7.3816459775,-0.427776655,0,TRUE,7.89936646,TRUE,4.9264211,6,95
"mp-1413","P2Ru",0.4792,6,2,87.3628771292587,6.19707079339639,14.5604795215431,7,58,2.89752343,90,-7.30957358333333,-7.30957358333333,-0.609237732222223,0,TRUE,8.18280746,FALSE,0,0,59
"mp-1415","CaSe",2.0728,2,2,52.4087488217644,3.77164602960037,26.2043744108822,3,225,4.20055011322434,60.0000126828477,-4.773073455,-5.009073455,-2.25831777617187,0,TRUE,2.43012507,FALSE,0,0,54
"mp-1416","NbF4",0,5,2,75.3831573409565,3.72052652456995,15.0766314681913,4,139,5.24131576904636,133.104323855092,-6.369710016,-6.739310016,-3.189865834,0.0679487278666659,FALSE,1.45591142,TRUE,0.9899506,1,68
"mp-1418","FeNi3",0,4,2,43.2589584799139,8.90268440715785,10.8147396199785,3,221,3.51033287,90,-6.5423671675,-6.5423671675,-0.0897593549999999,0,TRUE,7.50050958,TRUE,5.2755722,4,82
"mp-1419","S5N6",2.2957,22,2,439.629432532139,1.84599997675478,19.9831560241881,1,15,7.68352900529913,80.4596077321005,-5.780277095,-5.97718618590909,0.450197349034092,0.45019734903409,FALSE,0.18542584,FALSE,0.0002433,0,99
"mp-1422","GdPt2",0,6,2,113.302465965904,16.045705042882,18.8837443276507,3,227,5.43147928284067,59.9999986227892,-9.83479792,-9.83479792,-1.09533496,0,TRUE,6.04645128,TRUE,14.2779558,2,142
"mp-1423","HoC2",0,3,2,41.0922726756495,7.63554051239405,13.6974242252165,4,139,3.64732,116.948392632412,-7.87371805,-7.87371805,-0.193804764999999,0.0749146091666661,FALSE,4.36922083,FALSE,1.85e-05,0,73
"mp-1424","GePd",0,8,2,129.243599310529,9.20234740758019,16.1554499138162,7,62,3.54925952,90,-5.36262051,-5.36262051,-0.461165677499999,0,TRUE,6.53542781,FALSE,0,0,78
"mp-1425","TiCr2",0,6,2,79.5179451296692,6.34242079096522,13.2529908549449,3,227,4.82680714611961,60.0000119056969,-9.172315315,-9.172315315,-0.105119662777778,0,TRUE,6.16787702,FALSE,1e-07,0,46
"mp-1426","Sm2Fe17",0,19,2,261.282318090677,7.94472046267692,13.7517009521409,2,166,6.43828243871555,82.9510054401189,-8.05227200473684,-8.05227200473684,0.0228613026315782,0.0228613026315791,FALSE,4.40694412,TRUE,39.5358941,19,62
"mp-1427","Lu2O3",4.0211,40,2,540.261568467736,9.78462289416088,13.5065392116934,3,206,8.88673007170831,109.471226288383,-8.48903515525,-8.90123515525,-4.1248417205,0,TRUE,1.27837067,FALSE,0,0,87
"mp-1428","Ni5Ge3",0,16,2,193.541853816531,8.77513648759772,12.0963658635332,1,15,6.31258962156999,64.1541308106596,-5.657245048125,-5.657245048125,-0.311024177499999,0,TRUE,8.61347337,FALSE,0,0,176
"mp-1429","SmCo5",0,6,2,84.7032838076284,8.72437270339573,14.1172139679381,6,191,3.96287,60.0000064268107,-6.77622705333333,-6.77622705333333,-0.066197868333333,0.0161054189361706,FALSE,4.68676283,TRUE,7.1140864,6,170
"mp-1431","MnSi",0,8,2,90.1712416677444,6.11564562582436,11.2714052084681,3,198,4.48424634000311,90.0002201499942,-7.76347144125,-7.72797144125,-0.434304780215518,0,TRUE,9.23793987,TRUE,3.9898655,4,39
"mp-1432","Be2B",0,3,2,23.9199096263705,2.00177380138775,7.97330320879017,3,225,3.23413513785792,59.9999985479811,-4.67868738666667,-4.67868738666667,0.0407184469444447,0.0546493959722225,FALSE,4.79997553,FALSE,0,0,9
"mp-1434","MoS2",1.2042,3,2,56.9213525678919,4.66964463069691,18.9737841892973,2,160,6.73776894321264,27.3368278218153,-7.23887235,-7.57420568333333,-1.20135573541667,0.0001997633333337,FALSE,5.25004401,FALSE,0,0,58
"mp-1435","SrZn5",0,24,2,450.509064770696,6.11368326097644,18.7712110321124,7,62,5.26916317,90,-1.55396815083333,-1.55396815083333,-0.222599566944444,0,TRUE,2.4657132,FALSE,0,0,158
"mp-1436","EuAg2",0,6,2,145.93066746491,8.36809547453437,24.3217779108183,7,74,4.77353010290381,76.1742416453095,-5.62089191833333,-5.62089191833333,-0.313520649444445,0,TRUE,2.71615616,TRUE,14.2994575,2,110
"mp-1437","LiCd",0,4,2,74.0132279819219,5.35549290527504,18.5033069954805,3,227,4.71275390230906,60.0000031852748,-1.6667995375,-1.6667995375,-0.250893224166667,0,TRUE,1.4771953,FALSE,5e-07,0,51
"mp-1438","ZrIr3",0,4,2,62.0842804369166,17.8633386954103,15.5210701092292,3,221,3.9596842,90,-9.4915085825,-9.4915085825,-0.725757789999999,0,TRUE,8.52591227,FALSE,1.68e-05,0,194
"mp-1439","TiO2",2.5281,12,2,123.164875054483,4.30708124947463,10.2637395878736,7,60,4.54534955,90,-8.94256675583333,-9.40056675583333,-3.47094360944444,0.031542640833333,FALSE,3.11231427,FALSE,0,0,30
"mp-1441","CsO2",0,3,2,69.1213873986514,3.96158067472094,23.0404624662171,4,139,4.36552707698566,117.277571609495,-4.46962222,-4.57695555333333,-0.980695621810344,0,TRUE,1.07047007,TRUE,0.9999999,2,63
"mp-1443","Sn3F8",3.1684,22,2,339.978870316237,4.96353495578344,15.4535850143744,1,14,5.14789782405323,90,-4.85635210590909,-5.19235210590909,-2.70866598727273,0,TRUE,0.98731589,FALSE,0,0,163
"mp-1444","CaCd2",0,6,2,157.074004248421,5.60088603899918,26.1790007080702,7,74,4.93786668246336,75.7645145526861,-1.61431341333333,-1.61431341333333,-0.33052028,0,TRUE,2.51971011,FALSE,0,0,68
"mp-1447","SmSe",0,2,2,50.9882197453492,7.46829013945806,25.4941098726746,3,225,4.16225113861237,59.9999996964312,-5.917032325,-6.153032325,-2.04578351867188,0,TRUE,5.22952787,FALSE,2e-07,0,96
"mp-1448","NdGa",0,4,2,105.571108603286,6.7309559610708,26.3927771508214,7,63,4.17831134,111.801835220333,-4.48630159,-4.48630159,-0.5881798625,0,TRUE,3.16292084,FALSE,0.0089915,0,91
"mp-1449","Pr3S4",0,14,2,323.92391931176,5.64903459707118,23.1374228079829,3,220,7.49356135070898,109.471215571602,-6.42439303928571,-6.71182161071429,-2.29917636321428,0.0312354771428582,FALSE,6.37683068,FALSE,2.8e-06,0,166
"mp-1451","NbNi3",0,8,2,97.0858299623694,9.20139889939146,12.1357287452962,7,59,4.21909961,90,-7.15304750875,-7.15304750875,-0.29261873875,0,TRUE,7.34496715,FALSE,1e-07,0,97
"mp-1453","NdSe",0,2,2,53.299144318661,6.95387600460007,26.6495721593305,3,225,4.22420510653735,60.0000104437574,-5.962339435,-6.198339435,-2.06630997992187,0,TRUE,5.25261473,FALSE,1e-07,0,94
"mp-1455","MnS2",0,12,2,168.485083690352,4.69399749759589,14.0404236408627,3,205,5.523154,90,-6.2551914725,-6.59052480583333,-0.778886463893678,0.110634054166666,FALSE,7.34817241,TRUE,4.0159753,4,41
"mp-1458","Nb3Ir",0,8,2,138.357465737898,11.3041656866602,17.2946832172372,3,223,5.17210738,90,-10.18825025375,-10.18825025375,-0.402662928750001,0,TRUE,6.08072656,FALSE,1e-07,0,159
"mp-1459","TaN",0,2,2,21.6337755894547,14.9640868263603,10.8168877947274,6,187,2.93994249,90,-11.24161005,-11.42211005,-1.3249737725,0.027608438333333,FALSE,8.03511215,FALSE,0,0,80
"mp-1460","RbGa7",0,16,2,360.202726817877,5.2879498533155,22.5126704261173,2,166,10.2159401953169,37.8480968018693,-2.875677025625,-2.875677025625,-0.103526246875,0,TRUE,2.64033863,FALSE,3e-07,0,223
"mp-1462","Sn2Au",0,24,2,591.642524192989,9.75340126289569,24.6517718413745,7,61,6.95608227,90,-3.89728637958333,-3.89728637958333,-0.13294447625,0,TRUE,6.67276872,FALSE,1e-07,0,129
"mp-1463","LaIr2",0,6,2,114.555800037638,15.1720931588486,19.0926333396064,3,227,5.45143270933098,59.9999979727305,-8.27593257666667,-8.27593257666667,-0.738307421666666,0,TRUE,9.63384479,FALSE,0,0,134
"mp-1464","Nd5Ge3",0,16,2,454.867488255695,6.85677518785179,28.429218015981,6,193,8.82572249000006,90,-5.41597286,-5.41597286,-0.7022452690625,0,TRUE,4.03504788,TRUE,1.4160353,10,304
"mp-1465","Nd5Ge3",0,16,2,467.146457850721,6.67654448581688,29.19665361567,6,193,9.32446425922439,90,-5.14081914125,-5.14081914125,-0.427091550312499,0.27515371875,FALSE,4.17352216,TRUE,0.5149505,4,304
"mp-1468","P4S3",2.8693,56,2,1505.20291121781,1.94242580930531,26.8786234146037,7,62,9.86439925,90,-5.01244677625,-5.22801820482143,-0.361938258065477,0,TRUE,-0.13855626,FALSE,0,0,77
"mp-1469","P4S3",2.8058,28,2,753.518160913856,1.94006271822638,26.9113628897806,7,62,6.8275694,90,-5.01226686892857,-5.2278382975,-0.361758350744048,0.0001799073214288,FALSE,-0.2262265,FALSE,0,0,77
"mp-1470","Nb12O29",0,82,2,1205.72266553559,4.34885631792393,14.7039349455559,7,63,10.7531092055513,90,-9.00941970060976,-9.49534652987805,-3.03998962484756,0,TRUE,2.42126958,FALSE,0.9424131,0,8
"mp-1471","Zr3Al",0,4,2,83.8403674789255,5.95473232488304,20.9600918697314,3,221,4.37674312,90,-7.6494798225,-7.6494798225,-0.302310392500001,0,TRUE,5.23592982,FALSE,3.04e-05,0,93
"mp-1472","ZrB2",0,3,2,30.866764924354,6.07077521628112,10.2889216414513,6,191,3.1675254,90,-8.28951941,-8.28951941,-0.987358019444444,0,TRUE,7.38649634,FALSE,1e-07,0,45
"mp-1473","Fe7W6",0,13,2,170.411382380847,14.5575407380841,13.1085678754498,2,166,9.07091104388197,30.498365077808,-10.5575857923077,-10.5575857923077,-0.0161296500000017,0.0026645362499984,FALSE,6.50990656,TRUE,6.2580666,13,526
"mp-1474","Re3P4",0,7,2,102.193851262952,11.0901443411626,14.5991216089931,1,12,3.03333548094199,113.113962363045,-8.80804711857143,-8.80804711857143,-0.381362606904762,0,TRUE,8.38506374,FALSE,1e-07,0,195
"mp-1475","Be12Mo",0,13,2,109.423113170982,3.09708864667166,8.41716255161398,4,139,4.20334579829196,81.670596557764,-4.41385091846154,-4.41385091846154,-0.127804419230769,0,TRUE,5.12066346,FALSE,1e-07,0,42
"mp-1476","ScS",0,2,2,35.509543598173,3.60174252782401,17.7547717990865,3,225,3.68937864908141,60.0000160843752,-7.102446995,-7.353946995,-2.1194875090625,0,TRUE,7.30601067,FALSE,5e-07,0,37
"mp-1477","BaSi2",0.7813,24,2,713.476388125537,3.60276520604274,29.7281828385641,7,62,6.78726579,90,-4.61676358541667,-4.56943025208333,-0.312893252083334,0,TRUE,3.44813571,FALSE,0,0,70
"mp-1478","Cu4O3",0,14,2,165.849623117468,6.05108819542785,11.8464016512477,4,141,5.79059958045826,116.805438112617,-4.97597058214286,-5.27039915357143,-0.807985894464285,0.0075159578571435,FALSE,4.00000232,TRUE,3.95472,6,103
"mp-1479","BP",1.2435,2,2,23.2729443250854,2.9813687825822,11.6364721625427,3,216,3.20470964598693,60.0000086888747,-6.4538348,-6.4538348,-0.407487661249999,0,TRUE,7.5307309,FALSE,0,0,20
"mp-1480","BaSi6",0,14,2,283.313832716337,3.58513570099791,20.2367023368812,7,63,5.70181206750363,90,-5.00612333642857,-4.94526619357143,-0.0208543192857147,0.11324278875,FALSE,6.62109951,FALSE,0.0023966,0,126
"mp-1481","SnTe",0,2,2,59.533719556823,6.87018013554254,29.7668597784115,3,221,3.9047,90,-3.635007465,-3.846007465,-0.269568590833333,0.227590725000002,FALSE,6.77075285,FALSE,3.18e-05,0,102
"mp-1482","Zr2Al3",0,10,2,185.747679592787,4.70933181344408,18.5747679592787,7,43,5.53999809124414,100.737442555356,-6.187818729,-6.187818729,-0.521392979,0,TRUE,5.79503639,FALSE,0,0,66
"mp-1483","SiRh",0,8,2,102.903164708807,8.45515970236762,12.8628955886009,3,198,4.68607869,90,-7.17783659875,-7.14233659875,-0.74752364875,0.0328592775000124,FALSE,9.56762143,FALSE,0,0,59
"mp-1484","Pr4Sb3",0,14,2,440.999386610661,6.99543984645332,31.4999561864758,3,220,8.30526130395566,109.471220521532,-5.56678245357143,-5.64906816785714,-1.14755006214286,0,TRUE,5.4765608,FALSE,8.85e-05,0,279
"mp-1486","ZnNi",0,2,2,24.1157264982662,8.54533175575845,12.0578632491331,3,221,2.889128,90,-3.765752925,-3.765752925,-0.24581278,0.0091577549999999,FALSE,5.36238975,FALSE,2.85e-05,0,58
"mp-1487","AlNi",0,2,2,23.3865721182007,6.08325931029187,11.6932860591003,3,221,2.85971129,90,-5.42169625,-5.42169625,-0.658839995,0,TRUE,10.47765691,FALSE,5.9e-06,0,41
"mp-1490","AlAu4",0,20,2,339.815023122544,15.9273314880959,16.9907511561272,3,198,6.97826608,90,-3.5791628265,-3.5791628265,-0.2109420605,0,TRUE,6.10231464,FALSE,0,0,250
"mp-1491","VB2",0,3,2,23.3263310507156,5.16560132398243,7.77544368357187,6,191,2.98754701,90,-8.21974619333333,-8.21974619333333,-0.738849656111112,0,TRUE,8.85993682,FALSE,2.8e-06,0,28
"mp-1492","CdTe",0.2561,6,2,194.482339818055,6.14782260877651,32.4137233030092,2,152,4.62466889021441,90,-2.378784255,-2.589784255,-0.556686428333333,0.112622214999999,FALSE,2.84330768,FALSE,0,0,100
"mp-1495","ErIr2",0,6,2,105.680960037018,17.337234236874,17.6134933395031,3,227,5.30685475772786,59.9999982829343,-8.25729952,-8.25729952,-0.84243713,0,TRUE,6.89331462,FALSE,7.9e-06,0,145
"mp-1497","TaN",0,6,2,70.32013569655,13.8109672185322,11.7200226160917,6,191,5.26314501288137,90,-10.81763948,-10.99813948,-0.9010032025,0.451579008333335,FALSE,7.69013746,FALSE,5.8e-06,0,80
"mp-1498","Al21Pd8",0,58,2,898.689144256983,5.24007312685434,15.4946404182239,4,88,10.6145113150256,104.654830454845,-4.70064025,-4.70064025,-0.559393804827586,0,TRUE,7.69732118,FALSE,1e-07,0,335
"mp-1500","BaS",2.1488,2,2,67.1262011802326,4.19034637181792,33.5631005901163,3,225,4.5617934537544,60.0000080948468,-5.10625155,-5.35775155,-2.3300391465625,0,TRUE,1.35700937,FALSE,0,0,72
"mp-1501","Al3Pt5",0,16,2,232.663617736211,15.078719485043,14.5414761085132,7,55,3.97142287,90,-6.10681573125,-6.10681573125,-0.90776647,0,TRUE,8.49503962,FALSE,4e-07,0,338
"mp-1502","Al2Pt",0,3,2,51.3014528209456,8.06122201951167,17.1004842736485,3,225,4.1707574612557,60.0000003133859,-5.41472131,-5.41472131,-0.893959649999999,0,TRUE,7.19129498,FALSE,4e-07,0,91
"mp-1505","TmMg",0,2,2,52.6066690860178,6.09963076885261,26.3033345430089,3,221,3.74697045,90,-3.096397245,-3.096397245,-0.0583395083333329,0,TRUE,3.03195502,FALSE,1.01e-05,0,81
"mp-1506","Sm5Ge4",0,36,2,929.147923514708,7.4514701379894,25.8096645420752,7,62,7.83523179,90,-5.50105584472222,-5.50105584472222,-0.824940056388889,0,TRUE,3.37354745,TRUE,2.9640903,20,344
"mp-1507","HgTe",0,4,2,120.309988584122,9.0594691709476,30.0774971460304,7,63,4.57982103049508,90,-1.7228947375,-1.9338947375,-0.210401608333333,0.1690585075,FALSE,3.44943292,FALSE,3.3e-06,0,132
"mp-1508","LaS2",0.6313,24,2,557.965583326586,4.83396596371291,23.2485659719411,7,62,4.15927327,90,-6.26593274166667,-6.601266075,-2.19829712875,0,TRUE,6.71840804,FALSE,0,0,73
"mp-1509","Sn2S3",0.7774,20,2,496.657169252844,4.46167517555138,24.8328584626422,7,62,3.76347324,90,-4.481624222,-4.783424222,-0.697725559875,0.0039964704999997,FALSE,4.78514416,FALSE,0,0,82
"mp-1510","Nd2Fe17",0,19,2,265.193107210975,7.75094286827178,13.9575319584724,2,166,6.46797142121036,83.1338897648165,-7.75734069894737,-7.75734069894737,0.323009587105263,0.323009587105263,FALSE,4.41440606,TRUE,0.0767437,3,60
"mp-1513","Co9S8",0,17,2,229.357802324939,5.69725259691177,13.4916354308788,3,225,6.87083587076881,60.0000056172418,-6.18940793235294,-6.42611381470588,-0.716322103529412,0,TRUE,6.30144784,FALSE,2e-07,0,328
"mp-1514","UB2",0,3,2,33.3765860177676,12.9180521789652,11.1255286725892,6,191,3.08578763,90,-8.80090654666667,-8.80090654666667,-0.584175362777778,0,TRUE,11.96911857,TRUE,1.1784996,1,97
"mp-1515","ZrSi2",0,6,2,100.605940157138,4.8656203667342,16.7676566928564,7,63,3.67325121,103.911801698022,-7.11390672166667,-7.06657338833333,-0.600461158333334,0,TRUE,7.91485625,FALSE,0,0,54
"mp-1518","CeRh3",0,4,2,65.7752036502456,11.3310770510546,16.4438009125614,3,221,4.03664664,90,-7.64101537,-7.64101537,-0.63451217875,0,TRUE,7.90070134,FALSE,1.12e-05,0,148
"mp-1519","CaTe",1.5535,2,2,65.2816228794573,4.2651493227043,32.6408114397287,3,225,4.51962073357966,59.999989730758,-4.22279047,-4.43379047,-1.85933758333333,0,TRUE,3.67271973,FALSE,0,0,72
"mp-1521","Sb7Mo3",0,20,2,445.251821297046,8.50416290663642,22.2625910648523,3,229,8.33187100853094,109.471221183257,-6.15760707,-6.29200707,-0.148011169000001,0,TRUE,8.47011274,FALSE,1e-07,0,390
"mp-1522","FeS2",0.877000000000001,6,2,80.6695974892981,4.93923809503982,13.444932914883,7,58,3.37769817,90,-6.09374918166667,-6.429082515,-0.848108867083333,0,TRUE,7.70109249,FALSE,0,0,42
"mp-1523","ZrP2",0,12,2,202.199778960929,5.03160390777296,16.8499815800774,7,62,3.52562158,90,-7.41872328,-7.41872328,-0.960621398888888,0,TRUE,7.68736951,FALSE,0,0,55
"mp-1525","CeTe",0,2,2,66.3451904548515,6.70060442522066,33.1725952274258,3,225,4.5440334436213,59.9999976292351,-5.900993545,-6.111993545,-1.57379602083333,0,TRUE,7.80779501,TRUE,1.3783567,1,110
"mp-1526","TiHg",0,4,2,74.5880243019384,11.0627023233679,18.6470060754846,4,123,4.10115078,90,-4.108831155,-4.108831155,-0.0092449641666663,0.0592560024999997,FALSE,5.14235433,TRUE,1.9922269,1,102