"material_id","formula_pretty","band_gap","nsites","nelements","volume","density","density_atomic","crystal_symmetry","symmetry_number","sides_abc","angles_abc","uncorrected_energy_per_atom","energy_per_atom","formation_energy_per_atom","energy_above_hull","is_stable","efermi","is_magnetic","total_magnetization","num_magnetic_sites","atomic_number"
"mp-7248","U(Al2Cu)4",0,13,3,195.474863555232,6.01494195280951,15.036527965787,4,139,6.68889199395721,98.4167793632546,-4.64493290230769,-4.64493290230769,-0.210098800000001,0,TRUE,8.84224394,TRUE,3.1121726,1,192
"mp-7249","Ba3Nb2ZnO9",2.7287,15,4,215.308977220681,6.22539184403145,14.3539318147121,2,164,5.87142730329015,90,-7.44250457866667,-7.85470457866667,-3.07207278458333,0,TRUE,2.11558013,FALSE,1.81e-05,0,247
"mp-7250","Nb6Co7",0,13,2,181.263656031154,8.88580857709762,13.9433581562426,2,166,9.17238793649865,30.9692820607768,-8.65330115384615,-8.65330115384615,-0.163604630384615,0.0056229034102557,FALSE,5.36689819,TRUE,1.1222784,1,367
"mp-7251","Ba2YNbO6",2.8514,10,4,157.070207141597,5.8406097289002,15.7070207141597,3,225,6.05623805900148,60,-8.046105763,-8.458305763,-3.44971993291667,0,TRUE,2.06677558,FALSE,0,0,176
"mp-7257","K3NaP2(O3F)2",4.5042,14,5,221.790385833301,2.51731115059005,15.8421704166644,2,164,5.84108165567868,90,-5.90456091785714,-6.26498948928571,-2.7661739642656,0.0013899748214276,FALSE,0.08686703,FALSE,0.0015759,0,89
"mp-7258","K4SnO4",2.3423,18,3,362.163078084863,3.1095943236012,20.1201710047146,5,2,6.50948221300873,71.6464629616675,-4.66585723777778,-4.97119057111111,-1.833643628,0,TRUE,0.32730076,FALSE,0.0887108,0,131
"mp-7260","P4S5",2.5427,18,2,450.331705376864,2.09604825767249,25.0184280764924,1,11,6.49205912114147,90,-4.85297071833333,-5.13241516277778,-0.428475233773147,0.0170023296527821,FALSE,0.80881289,FALSE,0,0,109
"mp-7262","ZnAs2",0.2241,24,2,558.344218235634,5.12135239298924,23.2643424264848,1,14,7.69436264,102.501213404078,-3.68232030791667,-3.68232030791667,-0.156326834583333,0,TRUE,2.68374368,FALSE,0,0,63
"mp-7263","CaGaN",0,6,3,95.7804052652181,4.29289314503559,15.9634008775364,4,129,3.5700631,90,-5.17979483333333,-5.30012816666667,-0.843397890833334,0,TRUE,3.50551282,FALSE,0,0,58
"mp-7264","Nd(PO3)3",5.4867,26,3,349.147612612461,3.6255585739788,13.4287543312485,7,20,7.04399952921226,90,-7.55382008076923,-8.02943546538462,-2.98880059201923,0,TRUE,0.9926435,FALSE,0,0,91
"mp-7273","Te8Rh3",0,11,2,275.034081562043,8.02705641206605,25.0030983238221,2,148,6.5039941423644,90.8757606336955,-4.65168915272727,-4.95859824363636,-0.664109993030302,0,TRUE,7.22156183,FALSE,0,0,454
"mp-7275","BaSi2",0,12,2,308.940802966467,4.16016253241683,25.7450669138722,3,212,6.76018255,90,-4.603322555,-4.55598922166667,-0.299452221666667,0.0134410304166667,FALSE,5.18348223,FALSE,0,0,70
"mp-7276","ScUS3",0,10,3,211.810962232152,5.94532880698897,21.1810962232152,7,63,3.75350386,90.0001006969027,-7.672384418,-7.974184418,-1.967538674875,0.0280006710000009,FALSE,7.54042638,TRUE,5.7428999,2,145
"mp-7277","Tl2GeS3",1.7699,12,3,333.067525758992,5.75937278511322,27.7556271465826,5,2,6.8222198113374,89.8032229970413,-4.04168715,-4.29318715,-0.666909858506945,0,TRUE,2.27339166,FALSE,0,0,145
"mp-7280","PPdS",1.0143,24,3,448.831617897241,5.0155627769182,18.701317412385,7,60,5.68374435180019,89.9931673730946,-5.33798749166667,-5.50565415833333,-0.595776097152778,0,TRUE,3.57935735,FALSE,0,0,77
"mp-7281","Dy3Ni2",0,10,2,221.117137589,9.08512269309178,22.1117137589,1,12,3.63900163,104.440031648064,-5.441920138,-5.441920138,-0.365793362,0,TRUE,4.36557112,TRUE,0.5513563,4,160
"mp-7283","LaB4",0,20,2,224.359401572288,5.39253196034277,11.2179700786144,4,127,4.18757793,90,-6.895536307,-6.895536307,-0.564821469333333,0,TRUE,8.38943966,FALSE,0.0002999,0,72
"mp-7284","USi2",0,6,2,104.772406911159,9.3255554271928,17.4620678185264,4,141,7.54245030834732,150.346478999701,-7.69276227666667,-7.64542894333333,-0.26474692,0.0420849541666674,FALSE,10.79731957,FALSE,0.0006273,0,106
"mp-7285","HfNi3",0,12,2,150.067462351474,11.7702597163906,12.5056218626229,2,166,7.03895901257885,43.5219872957372,-7.36050766083333,-7.36050766083333,-0.536107893333334,0.0019843296666657,FALSE,7.41518169,FALSE,7e-07,0,128
"mp-7288","Sc2SO2",2.0102,10,3,136.081508756032,3.75778518761874,13.6081508756032,6,194,3.53640232,90,-8.373018971,-8.748418971,-3.409465871125,0,TRUE,4.72440988,FALSE,0,0,45
"mp-7289","K2Te3",0.5752,20,2,764.343610459613,4.00606666108958,38.2171805229807,7,62,4.66031807,90,-3.033240768,-3.286440768,-0.9562976532,0,TRUE,2.71375407,FALSE,0,0,123
"mp-7290","Er3GaS6",2.1065,20,3,443.563344750611,5.71945000684517,22.1781672375305,7,36,6.38823605,102.391090615377,-5.8747993135,-6.1765993135,-2.021604148125,0,TRUE,3.10392999,FALSE,0,0,247
"mp-7291","CrP2",0,6,2,74.9798194776809,5.04690036225821,12.4966365796135,1,12,3.00547892058869,80.1902125011589,-7.25408268,-7.25408268,-0.427531852222222,0,TRUE,9.72982348,FALSE,0,0,39
"mp-7293","HgPSe3",1.2066,20,3,536.700189308271,5.79742048020242,26.8350094654136,1,15,6.65060862594758,85.858151804308,-3.361701631,-3.644901631,-0.403958170072917,0,TRUE,1.30768617,FALSE,0,0,163
"mp-7295","RbCr5S8",0.2847,14,3,266.583535391211,3.74963846712396,19.0416810993722,1,12,3.49969321925107,104.898280737743,-6.68450383285714,-6.97193240428571,-1.09069166446429,0,TRUE,4.60829909,TRUE,15.0000011,5,245
"mp-7297","Cs2SnF6",5.3369,9,3,172.24129269295,4.80603410507169,19.1379214103277,2,164,6.30441264,90,-4.65667121666667,-4.96467121666667,-3.0458656162069,0,TRUE,-2.03363215,FALSE,0,0,150
"mp-7298","Li(CuP)2",0,5,3,70.1788875804649,4.63719684957399,14.035777516093,4,139,3.85082434247339,110.64877214414,-4.505248874,-4.505248874,-0.31846063,0,TRUE,6.63167807,FALSE,0,0,47
"mp-7302","CrP4",0,10,2,148.26998443214,3.93976061765621,14.826998443214,1,15,5.17427939287074,81.1737225849186,-6.542777995,-6.542777995,-0.281526495666667,0,TRUE,8.47275225,FALSE,0,0,69
"mp-7303","ErCd3",0,8,2,182.910508225697,9.15998411368994,22.8638135282121,7,63,4.814409,112.739626349939,-2.09246049375,-2.09246049375,-0.25836347125,0,TRUE,3.02830896,FALSE,2.5e-06,0,164
"mp-7305","SmZrF7",5.6549,18,3,290.540520817466,4.28162518007321,16.1411400454148,1,4,5.80973248,77.2190842304856,-6.82797208166667,-7.187305415,-4.22656768861111,0.0023492497222212,FALSE,-2.82777828,FALSE,0,0,156
"mp-7310","ZrPbF6",5.0238,16,3,224.769837524635,6.09361346925111,14.0481148452897,7,67,5.31035931,112.409888444217,-6.162849215625,-6.509349215625,-3.5431965275,0,TRUE,0.01385042,FALSE,0,0,167
"mp-7317","Sm5Co2",0,14,2,363.788114401433,7.93931939134459,25.9848653143881,1,15,6.45861368903583,95.1225069111779,-5.50532795428571,-5.50532795428571,-0.103961345,0,TRUE,3.42810699,FALSE,9e-07,0,275
"mp-7322","CsU2O6",0,18,3,343.457379109292,6.8166424527159,19.0809655060718,3,227,7.858109536133,60.0587813047201,-8.95796623055556,-9.41596623055556,-3.50948237949234,0,TRUE,3.95101652,TRUE,1.9987691,4,187
"mp-7323","RbBe2BO3F2",6.0052,9,5,118.162501414267,2.8147926197976,13.1291668238075,2,155,7.29378710969034,35.7073146497281,-6.59754833777778,-6.92921500444444,-3.17346215532407,0,TRUE,-1.36922469,FALSE,0.0010982,0,71
"mp-7324","KBePO4",5.2634,28,4,363.886880343144,2.61172363740201,12.9959600122551,7,33,4.988849,90,-6.79316189571429,-7.18573332428571,-2.89289487233333,0,TRUE,0.92209213,FALSE,0.0007443,0,62
"mp-7329","KCeS2",0,4,3,113.820730735875,3.55016800693467,28.4551826839688,2,166,7.72253337500316,31.8348651199385,-5.6325150175,-5.8840150175,-2.0549180585625,0,TRUE,4.59612091,TRUE,1,1,93
"mp-7331","Cs2MgFe(CN)6",4.1775,16,5,287.336738638339,2.90147043115725,17.9585461648962,3,225,7.40688130753234,60,-7.6549575875,-7.7903325875,-0.462078305678879,0,TRUE,0.58331741,FALSE,0.0002744,0,134
"mp-7332","NdP5",0,12,2,258.538021225959,3.84226028258546,21.5448351021633,1,11,5.06108524361157,90,-5.840606825,-5.840606825,-0.534830164027777,0,TRUE,5.35666697,FALSE,0,0,120
"mp-7337","NdAl3(BO3)4",5.3084,20,4,189.012079950023,4.04498521637067,9.45060399750116,2,155,5.9665004438985,104.13751331762,-7.927069953,-8.339269953,-3.23513462595833,0.0109677717603595,FALSE,3.52444191,FALSE,0,0,107
"mp-7339","BaSiO3",4.5345,20,3,335.464769852006,4.22550248405267,16.7732384926003,7,19,4.638022,90,-7.4074165525,-7.8196165525,-3.38274473175,0.0220318505000003,FALSE,1.20292592,FALSE,0.0003712,0,86
"mp-7342","Sm3Ir",0,16,2,458.041635392494,9.32858253386706,28.6276022120309,7,62,6.48690091,90,-6.245159795,-6.245159795,-0.49661164875,0,TRUE,3.87389574,TRUE,1.7362504,12,201
"mp-7343","Y3Pt",0,16,2,448.746252724154,6.83539537220659,28.0466407952596,7,62,6.49194349,90,-7.072619608125,-7.072619608125,-0.704982943125,0,TRUE,3.9113995,FALSE,2.118492,0,156
"mp-7347","La(BRu)4",0,18,3,228.551502781063,8.52139699709922,12.6973057100591,4,86,3.99412491,90,-8.11869093,-8.11869093,-0.479670446851851,0,TRUE,7.88909713,FALSE,3.06e-05,0,194
"mp-7348","Sr(BRh)2",0,10,3,151.159024590078,6.92195277084197,15.1159024590078,7,70,5.58794573929833,105.444134478039,-6.50544407,-6.50544407,-0.550065522999999,0,TRUE,4.77966687,FALSE,0,0,88
"mp-7349","Ba(BRh)2",0,5,3,88.0136695825184,6.88186542847342,17.6027339165037,4,139,3.91519339609057,107.884940792819,-6.468525968,-6.468525968,-0.467251123666666,0,TRUE,4.59101132,FALSE,0,0,106
"mp-7350","Li(YSi)2",0,10,3,214.717298229281,3.72641812484638,21.4717298229281,4,127,7.161031,90,-5.80326234,-5.77486234,-0.636362109333334,0.0439258653333336,FALSE,4.11957976,FALSE,0.014903,0,56
"mp-7352","MgCuP",0,12,3,175.604230266971,4.49449672323888,14.6336858555809,7,62,3.82388056,90,-4.13418370916667,-4.13418370916667,-0.429920633611111,0,TRUE,7.30519179,FALSE,0,0,56
"mp-7353","Hf3Cu8",0,44,2,613.990462941536,11.2922521297642,13.9543287032167,7,62,7.74830372,90,-5.86336896113636,-5.86336896113636,-0.16653073840909,0,TRUE,6.3947741,FALSE,3e-07,0,347
"mp-7355","Sm2SnS5",0.0116000000000004,16,3,346.145050872561,5.56244166501816,21.6340656795351,7,55,3.86683387,90,-5.694066116875,-6.008441116875,-1.74231693445313,0.0035248146875002,FALSE,4.97028624,FALSE,0,0,176
"mp-7359","BaAgAs",0,6,3,168.626978767379,6.3046430192914,28.1044964612299,6,194,4.6320921,90,-3.92754085166667,-3.92754085166667,-0.790657735555556,0,TRUE,3.35005797,FALSE,0,0,136
"mp-7361","Sr(CoGe)2",0,5,3,87.2706907331256,6.67419140323322,17.4541381466251,4,139,3.98948498433416,108.874098456854,-5.457827012,-5.457827012,-0.427390061333333,0,TRUE,4.96006755,FALSE,0,0,97
"mp-7363","Sr(ZnGe)2",0,5,3,101.412353422952,5.95556584419948,20.2824706845904,4,139,4.38984919897588,111.054054740833,-3.061816222,-3.061816222,-0.370808945333333,0,TRUE,4.31024474,FALSE,0,0,100
"mp-7364","Ca(SiAu)2",0,5,3,94.3589812964592,8.62627572611423,18.8717962592918,4,139,4.33330108267957,111.60011596744,-4.358894118,-4.358894118,-0.47809413,0,TRUE,5.92197758,FALSE,2e-07,0,113
"mp-7365","Sr(SiAu)2",0,5,3,99.2727535853587,8.99453179199918,19.8545507170717,4,139,4.43280680388656,111.887698068944,-4.30811493,-4.30811493,-0.490536227333333,0,TRUE,5.5500807,FALSE,2e-07,0,131
"mp-7366","Sr(AgSn)2",0,5,3,128.740121352058,6.97513975491489,25.7480242704116,4,139,4.71006468388592,110.608133294888,-3.4320783,-3.4320783,-0.357328466,0,TRUE,4.89973012,FALSE,1e-07,0,135
"mp-7367","Ca(GaO2)2",3.1337,56,3,771.418199595493,4.19359699393124,13.7753249927767,1,14,8.937869,85.1321313754835,-6.22159728375,-6.61416871232143,-2.63580488803571,0.0040479574404637,FALSE,0.80942005,FALSE,0.0008083,0,59
"mp-7368","Dy2Se3",0.3663,20,2,488.720479793198,7.63646075266595,24.4360239896599,7,62,4.00803873,90,-5.800026364,-6.083226364,-2.14296474140625,0,TRUE,3.77396666,FALSE,0,0,134
"mp-7372","ZnAs",0.2953,16,2,311.566097678455,5.98330679173973,19.4728811049034,7,61,5.68024686,90,-3.091382845625,-3.091382845625,-0.131951838125,0.0191857386328115,FALSE,3.42733932,FALSE,0,0,63
"mp-7373","CdAs",0.0918999999999998,16,2,384.453417171423,6.47304639477916,24.0283385732139,7,61,6.03383359,90,-2.8635436775,-2.8635436775,-0.0725395949999998,0.0156342530468744,FALSE,2.7229266,FALSE,0,0,81
"mp-7374","Ba(CuO)2",1.3863,10,3,166.642809805174,5.90740563617578,16.6642809805174,4,141,5.73915136086816,116.259664572083,-5.344450708,-5.619250708,-1.6170975675,0,TRUE,3.15895037,FALSE,0,0,93
"mp-7375","KNbO3",2.2934,5,3,66.425586831147,4.49979937851835,13.2851173662294,2,160,4.04992385487911,89.8368710996489,-7.655239236,-8.067439236,-2.85708521185,0,TRUE,1.18912488,FALSE,0,0,76
"mp-7376","Sr3(AlSn)2",0,7,3,223.410975430349,4.11950344118222,31.915853632907,7,71,4.49214575883973,103.689362940017,-3.44880987428571,-3.44880987428571,-0.50898477,0,TRUE,4.02105703,FALSE,0,0,139
"mp-7377","Ba3(AlSn)2",0,7,3,253.774824684934,4.60236167903458,36.253546383562,7,71,4.62145477200407,104.023927322775,-3.55784794428571,-3.55784794428571,-0.519673631428571,0,TRUE,3.6038069,FALSE,7e-07,0,175
"mp-7378","NaCdAs",0,12,3,271.994004450011,5.13612072406544,22.6661670375009,7,62,4.46875016,90,-2.67969622333333,-2.67969622333333,-0.378185070517241,0,TRUE,2.38918638,FALSE,1e-07,0,92
"mp-7379","TlCdSb",0,12,3,352.957562733525,8.2529643771959,29.4131302277937,7,62,4.94709967,90,-2.54851965333333,-2.61251965333333,-0.141008271111111,0,TRUE,4.59726931,FALSE,0,0,180
"mp-7380","CsRb2SiF7",5.4931,22,4,404.686139300679,3.81535252490826,18.3948245136672,4,127,8.240688,90,-5.00741970454546,-5.30141970454545,-3.33213413003919,0.0026117840909059,FALSE,-0.82781445,FALSE,0.0001872,0,160
"mp-7381","TbMg3",0,4,2,96.8379647927559,3.97550649905869,24.209491198189,3,225,5.15450406181129,60.0000025602146,-2.4384033625,-2.4384033625,-0.0796017999999998,0,TRUE,2.72604978,FALSE,1e-07,0,89
"mp-7384","SmF3",7.7298,16,2,204.353095577271,6.73973497159253,12.7720684735794,7,62,4.37738984,90,-6.71302656625,-7.05952656625,-4.446270806875,0,TRUE,-0.70211217,FALSE,0,0,80
"mp-7385","K2Be2PbF8",5.5671,13,4,183.396476277016,4.12343304207287,14.1074212520781,2,166,7.62914702274861,42.4837594627519,-5.16347896769231,-5.44778666,-3.23977878046154,0.0030410807692256,FALSE,-0.97175805,FALSE,0.0015397,0,168
"mp-7386","NaAgF4",1.5464,12,3,155.421744046133,4.4200396172353,12.9518120038444,4,140,5.46208505281442,114.905880190307,-3.6397064975,-3.9477064975,-1.98087363636973,0,TRUE,-2.36872036,FALSE,0,0,85
"mp-7387","KAgF4",1.7378,12,3,195.220782535067,3.79297708768726,16.2683985445889,4,140,5.8035107851423,114.116330851017,-3.65823988333333,-3.96623988333333,-2.03476141327778,0,TRUE,-3.38946766,FALSE,2.2e-06,0,93
"mp-7388","NaAuF4",2.1333,12,3,162.19727488899,6.05973751239711,13.5164395740825,4,140,5.57927733571916,115.266881599472,-3.74005564833333,-4.04805564833333,-2.00766845442529,0,TRUE,-1.51921399,FALSE,0,0,117
"mp-7390","SrGe2",0,3,2,76.1133655020689,5.08109904298776,25.371121834023,2,164,4.1319091,90,-4.1400254,-4.1400254,-0.494842345555555,0,TRUE,4.59779982,FALSE,0,0,70
"mp-7392","Na2AgSb",0.655,8,3,209.093800297507,4.37753215336835,26.1367250371884,7,63,5.76311298,99.0083347282142,-2.76387634125,-2.81187634125,-0.410224383692529,0,TRUE,2.4007414,FALSE,0,0,109
"mp-7394","BaAg2GeS4",0.5961,8,4,195.467327364626,4.70604412291684,24.4334159205783,4,121,6.38553858039508,114.996178012631,-4.36349012875,-4.61499012875,-1.02087584510417,0,TRUE,3.38929799,FALSE,0.0001752,0,183
"mp-7396","Li3Tl",0,4,2,72.3941046706983,5.16566729978225,18.0985261676746,3,225,4.67813482503718,60.0000002028607,-2.251797185,-2.251797185,-0.229444248333333,0,TRUE,3.67076318,FALSE,2.3e-06,0,87
"mp-7400","NaAlGe",0,6,3,126.063717925007,3.23012632171898,21.0106196541678,4,129,4.14753367,90,-3.41974021833333,-3.41974021833333,-0.189363892183908,0,TRUE,4.34705159,FALSE,0,0,56
"mp-7404","Na3SbO4",2.1351,16,3,192.338165148245,4.39833645554976,12.0211353217653,1,13,5.41565205671588,90,-5.148261628125,-5.491761628125,-2.0063451324569,0,TRUE,2.42203936,FALSE,0,0,97
"mp-7405","SmAlO3",4.8614,20,3,208.417800483608,7.18144876943293,10.4208900241804,7,62,5.28319658,90,-7.9472037665,-8.3594037665,-3.69855814675,0,TRUE,4.51792709,FALSE,1e-07,0,91
"mp-7420","KHgAs",0,6,3,180.183579459127,5.79877512986834,30.0305965765211,6,194,4.56766185406805,90,-2.37637642666667,-2.37637642666667,-0.351977187666667,0,TRUE,1.5050802,FALSE,0,0,132
"mp-7421","KZnAs",0.2742,6,3,156.925227072887,3.79733333747132,26.1542045121478,6,194,4.20899699,90,-2.81903870166667,-2.81903870166667,-0.475951714333333,0,TRUE,1.55707252,FALSE,0,0,82
"mp-7422","Ca(CuP)2",0,5,3,77.6352793169092,4.90058904652898,15.5270558633819,4,139,4.00649081697487,110.94023039441,-4.762804278,-4.762804278,-0.556680631333333,0.0089366843000053,FALSE,7.47190187,FALSE,0,0,64
"mp-7423","Sm3ReO8",1.3776,48,3,617.13821967105,8.23660534750838,12.8570462431469,1,14,6.1120044,69.1736762143453,-8.33400511291667,-8.79200511291667,-3.27752217291667,0,TRUE,4.09321592,FALSE,0,0,255
"mp-7424","BPd2",0,6,2,76.4236510123688,9.71901284130093,12.7372751687281,7,58,3.15134992,90,-5.94586328666667,-5.94586328666667,-0.266144823055555,0,TRUE,5.2143708,FALSE,0,0,51
"mp-7425","TbPt",0,2,2,43.4229450735693,13.5376896850436,21.7114725367847,3,221,3.514847,90,-6.54116035,-6.54116035,-1.18841064,0.0781592174999996,FALSE,4.62984453,FALSE,3.82e-05,0,143
"mp-7426","Ba(ZnP)2",0,5,3,107.196729209428,5.11332328641975,21.4393458418855,4,139,4.01489740858232,106.118491611564,-3.702982804,-3.702982804,-0.649969369333333,0,TRUE,4.08763596,FALSE,0,0,101
"mp-7427","Ba(ZnAs)2",0.2974,20,3,467.196344278528,5.94256135757793,23.3598172139264,7,62,4.26304984,90,-3.4289543555,-3.4289543555,-0.6776145615,0,TRUE,3.50575622,FALSE,0,0,119
"mp-7429","Ca(ZnSb)2",0,5,3,127.975195170217,5.37724483958634,25.5950390340435,2,164,4.44944222,90,-3.003245532,-3.080045532,-0.523427616,0,TRUE,4.49677127,FALSE,0,0,101
"mp-7430","Ca(CdSb)2",0.102,5,3,145.397605439711,5.80650052445907,29.0795210879421,2,164,4.6926032,90,-2.877666114,-2.954466114,-0.532589738,0,TRUE,4.08951227,FALSE,0,0,119
"mp-7431","Sr(ZnSb)2",0,5,3,136.511368941746,5.61930711027997,27.3022737883491,2,164,4.51285601,90,-2.975079328,-3.051879328,-0.558482697333334,0,TRUE,4.04763704,FALSE,0,0,119
"mp-7432","Sr(CdSb)2",0,5,3,154.413064005988,5.97874685337032,30.8826128011975,2,164,4.75283313,90,-2.86502899,-2.94182899,-0.583173899333334,0,TRUE,3.65520341,FALSE,1e-07,0,137
"mp-7433","NaCuSe",0.0476999999999998,6,3,111.360968153263,4.93552085266074,18.5601613588772,4,129,4.0452141,90,-3.56434496833333,-3.72167830166667,-0.749130487965157,0,TRUE,3.79519351,FALSE,0,0,74
"mp-7434","NaCuTe",0.6323,6,3,134.718078861024,5.27888778480433,22.4530131435041,4,129,4.36311327,90,-3.33208577,-3.47275243666667,-0.617739817739464,0.0093903041666658,FALSE,5.00931179,FALSE,0,0,92
"mp-7435","KCuSe",0.1762,6,3,143.818530812854,4.19363253272219,23.9697551354756,6,194,4.15231169,90,-3.58203372666667,-3.73936706,-0.837528028447916,0,TRUE,2.87036169,FALSE,0,0,82
"mp-7436","KCuTe",0.6037,6,3,171.671850672395,4.45419156972425,28.6119751120658,6,194,4.43921955,90,-3.37402452833333,-3.514691195,-0.730387358222223,0,TRUE,3.58372901,FALSE,0,0,100
"mp-7437","KZnP",0.8396,6,3,145.09795638636,3.10096161018855,24.1829927310599,6,194,4.06375843,90,-3.05250256166667,-3.05250256166667,-0.458020873777778,0,TRUE,1.98868598,FALSE,0,0,64
"mp-7438","KZnSb",0.443,6,3,187.321217871506,4.01156575227728,31.2202029785844,6,194,4.52584926,90,-2.56661815333333,-2.63061815333333,-0.464236887666667,0,TRUE,2.19630567,FALSE,0,0,100
"mp-7439","K3Cu3P2",1.2892,8,3,184.706553945376,3.32527937370437,23.088319243172,2,166,7.41985541727002,44.826272218955,-3.63593506625,-3.63593506625,-0.329007333208334,0,TRUE,2.49067692,FALSE,4e-07,0,111
"mp-7440","NaP",0.8684,16,2,336.789484254689,2.128535623621,21.0493427659181,7,19,5.58246188,90,-3.74845689625,-3.74845689625,-0.380542996192529,0,TRUE,3.32965515,FALSE,0,0,26
"mp-7441","KP",1.035,16,2,447.679911398677,2.07929627335181,27.9799944624173,7,19,6.02809154,90,-3.674296835,-3.674296835,-0.412446108166666,0,TRUE,2.39110254,FALSE,0,0,34
"mp-7443","Nb2CrSe4",0,7,3,139.569334385388,6.58708852669579,19.9384763407696,1,12,3.535106,114.848157842396,-6.99769912714286,-7.26741341285714,-1.004655775625,0.0533041390476194,FALSE,5.02810332,TRUE,3.1589087,1,167