"material_id","formula_pretty","band_gap","nsites","nelements","volume","density","density_atomic","crystal_symmetry","symmetry_number","sides_abc","angles_abc","uncorrected_energy_per_atom","energy_per_atom","formation_energy_per_atom","energy_above_hull","is_stable","efermi","is_magnetic","total_magnetization","num_magnetic_sites","atomic_number"
"mp-1527","TbCu2",0,6,2,105.442852973592,9.00853817981111,17.573808828932,7,74,4.29194247958369,77.4953265533556,-4.54227339166667,-4.54227339166667,-0.264680245,0,TRUE,5.01335444,FALSE,0,0,94
"mp-1529","LuIr",0,2,2,36.8748555623098,16.5349359972452,18.4374277811549,3,221,3.32846077,90,-7.69175063,-7.69175063,-1.01205828,0,TRUE,5.68855982,FALSE,0,0,148
"mp-1532","NpNi2",0,6,2,88.2412293343265,13.3378270118556,14.7068715557211,3,227,4.99722445076653,59.999997905704,-8.15458134,-8.15458134,0.0147696737500003,0.117549170916668,FALSE,12.54023685,TRUE,7.7059,6,28
"mp-1533","Nd3Tl",0,4,2,124.161407072226,8.52072239910069,31.0403517680566,3,221,4.98879862,90,-4.3779344925,-4.3779344925,-0.211163131458333,0.0013892741666667,FALSE,4.48461372,TRUE,1.4435924,3,201
"mp-1534","YS",0,2,2,42.1633347197335,4.76425367395794,21.0816673598667,3,225,3.90675830603464,60.000021288156,-7.29536233,-7.54686233,-2.24540183989583,0,TRUE,6.56772731,FALSE,4.1e-06,0,55
"mp-1535","TbSi2",0,3,2,57.223964429257,6.24171875927304,19.0746548097523,6,191,4.06306607,90,-5.70059226666667,-5.65325893333333,-0.491591546666666,0.0423228049999995,FALSE,6.71267554,FALSE,0,0,79
"mp-1536","KSb",0.6095,16,2,618.122851385098,3.45706670754289,38.6326782115686,1,14,6.99911076,97.0845360476942,-3.050734770625,-3.146734770625,-0.527034677125,0,TRUE,2.32513237,FALSE,0,0,70
"mp-1539","ZrTe",0,2,2,48.5537425958459,7.48378562151801,24.276871297923,6,187,3.80775083000014,90,-6.74312467,-6.95412467,-1.10862140833333,0,TRUE,7.4494828,FALSE,0,0,92
"mp-1540","HoTl",0,2,2,52.6259178760199,11.6531876039147,26.3129589380099,3,221,3.7474274,90,-3.7881088,-3.7881088,-0.315582791666666,0,TRUE,5.58129145,FALSE,9.1e-06,0,148
"mp-1541","BeSe",2.6637,2,2,34.5057730016521,4.23353057408832,17.252886500826,3,216,3.65428431788151,59.9999977670233,-4.411050035,-4.647050035,-1.02938786367187,0,TRUE,2.92071872,FALSE,0,0,38
"mp-1542","YB2",0,3,2,36.4457646728228,5.0358612178925,12.1485882242743,6,191,3.30083792,90,-7.17204814333333,-7.17204814333333,-0.563629925,0,TRUE,5.14027682,FALSE,2e-06,0,44
"mp-1543","Ge2Pt",0,6,2,106.755762520158,10.5884254961417,17.792627086693,7,58,2.98875548,90,-5.445852045,-5.445852045,-0.340122368333333,0.0035258308333316,FALSE,6.28816702,FALSE,0,0,110
"mp-1545","Nb3Rh",0,8,2,138.305598075919,9.16380294526195,17.2881997594899,3,223,5.17146099,90,-9.67178751,-9.67178751,-0.254731762500001,0,TRUE,5.50158292,FALSE,1e-07,0,127
"mp-1546","DyMg3",0,4,2,96.2191085214106,4.06276684923403,24.0547771303527,3,225,5.14350074772599,59.99998855456,-2.42644511,-2.42644511,-0.0745383624999997,0,TRUE,3.43733714,FALSE,5.1e-06,0,90
"mp-1547","NiS",0,6,2,81.5296841428285,5.54550911388632,13.5882806904714,2,160,5.58536353237734,116.601763919637,-5.31793191,-5.56943191,-0.6111386365625,0.0141818408333289,FALSE,7.99209344,FALSE,0,0,44
"mp-1548","PrMg",0,2,2,60.1658293520031,4.55976527833533,30.0829146760016,3,221,3.91847099,90,-3.303469955,-3.303469955,-0.1128770525,0,TRUE,3.30588397,FALSE,2.97e-05,0,71
"mp-1549","TbPt3",0,4,2,69.1733676405655,17.8643255967371,17.2933419101414,3,221,4.10499822,90,-6.699560585,-6.699560585,-0.98761907,0,TRUE,6.36100413,FALSE,7e-06,0,221
"mp-1550","AlP",1.6294,2,2,40.983457924418,2.34819231067148,20.491728962209,3,216,3.86997233192588,60.0000033993808,-5.18921136,-5.18921136,-0.609772191666666,0,TRUE,4.36978098,FALSE,0,0,28
"mp-1551","Te2Ir",0,9,2,218.243878016865,10.2127044430116,24.2493197796516,1,12,4.02740480860386,90.369613378568,-5.33505500666667,-5.61638834,-0.574706351111112,0.0060102183333334,FALSE,8.04597649,FALSE,0,0,129
"mp-1552","Mo2C",0,12,2,149.103202885706,9.08279543601615,12.4252669071422,7,60,4.7285431,90,-10.4192042333333,-10.4192042333333,-0.112548995833334,0,TRUE,8.61518803,FALSE,0,0,48
"mp-1553","HoNi5",0,6,2,78.5360330453263,9.69219641442076,13.0893388408877,6,191,4.81686337350287,90,-5.91359943,-5.91359943,-0.333084051666667,0,TRUE,6.53197341,TRUE,1.8791007,6,179
"mp-1554","KTe",0.2132,12,2,518.806543121816,3.20129778418171,43.2338785934846,6,189,9.5480702,90,-2.96230181583333,-3.17330181583333,-1.04644939566667,0.003362136666666,FALSE,1.36159133,FALSE,0,0,71
"mp-1555","V3Sb",0,8,2,118.343696293076,7.70566246644275,14.7929620366345,3,223,4.90962562,90,-8.060393725,-8.108393725,-0.263213862500001,0,TRUE,8.20207106,FALSE,1.4e-06,0,97
"mp-1556","PuTe",0,2,2,62.4346886567258,9.88322886562656,31.2173443283629,3,225,4.45294105809968,60.0000041676425,-9.832823865,-10.043823865,-1.33825175333333,0,TRUE,8.77193774,TRUE,5.8751773,1,52
"mp-1557","Mg3Au",0,24,2,465.404346737616,5.77754236918366,19.391847780734,2,165,7.98189552,90,-2.43349467166667,-2.43349467166667,-0.414814134166667,0.0004381099999997,FALSE,4.14547547,FALSE,0,0,103
"mp-1558","SrPd2",0,6,2,121.918913032052,8.1845475085473,20.3198188386753,3,227,5.56581420710607,60.0000010599046,-4.65213354333333,-4.65213354333333,-0.635714518888889,0,TRUE,3.90786896,FALSE,2e-07,0,84
"mp-1559","Mg3N2",1.51,40,2,489.827010464277,2.73722024386655,12.2456752616069,3,206,8.60101093785317,109.470199585187,-5.04588684075,-5.19028684075,-0.89552084075,0,TRUE,3.64204818,FALSE,0,0,31
"mp-1560","LaTe",0,2,2,68.4745663020265,6.46287765366244,34.2372831510133,3,225,4.59213637532156,59.9999972872781,-5.633221345,-5.844221345,-1.80456484583333,0,TRUE,8.14448484,FALSE,2.39e-05,0,109
"mp-1561","TbSe",0,2,2,47.9574137843331,8.23684777547075,23.9787068921665,3,225,4.0780912383973,59.9999913514059,-5.828203675,-6.064203675,-1.99906488617187,0,TRUE,5.65592417,FALSE,7e-07,0,99
"mp-1562","ThBe13",0,28,2,277.033168241054,4.186172442612,9.89404172289477,3,226,7.31727334269701,60.0001531744112,-4.1589127575,-4.1589127575,-0.157039507857143,0,TRUE,4.99714676,FALSE,3e-07,0,90
"mp-1563","CaSi",0,4,2,95.0936350650899,2.38056216041618,23.7734087662725,7,63,3.90539621,113.076004315769,-4.2539245575,-4.2184245575,-0.502965602500001,0,TRUE,4.91583017,FALSE,3e-07,0,34
"mp-1564","NaTl",0,4,2,104.572904799042,7.22102661215634,26.1432261997606,3,227,5.28824196290448,60.0000020591277,-1.9552621825,-1.9552621825,-0.112677962442529,0,TRUE,4.03143849,FALSE,0,0,92
"mp-1565","ZrO2",3.125,3,2,32.9708828345111,6.20596889451997,10.9902942781704,3,225,3.59927610008076,60.0000077610302,-9.43458521,-9.89258521,-3.7455591925,0.0689067583333322,FALSE,3.81141522,FALSE,0,0,48
"mp-1566","SmFe5",0,6,2,91.6790882088288,7.78086572262251,15.2798480348048,6,191,5.19560092158313,90,-7.83828432,-7.83828432,0.0064977108333342,0.0064977108333339,FALSE,4.40120428,TRUE,12.3274133,6,166
"mp-1567","ThNi5",0,6,2,82.1946285163645,10.6165292985325,13.6991047527274,6,191,4.90031092007543,90,-6.46079705,-6.46079705,-0.408373441666668,0,TRUE,8.02152364,TRUE,1.3811357,5,202
"mp-1568","K3P11",1.93,56,2,1556.09420202791,1.95499044471236,27.7873964647841,7,60,10.62268762,90,-4.80663575178571,-4.80663575178571,-0.315384007904761,0,TRUE,1.8272113,FALSE,0,0,38
"mp-1569","Be2C",1.1637,3,2,20.2186107840136,2.46675687427871,6.73953692800453,3,225,3.05789026567761,60.0000209623788,-5.80046752666667,-5.80046752666667,-0.231303785833333,0,TRUE,6.31837236,FALSE,0,0,10
"mp-1570","YFe2",0,6,2,99.2330817221566,6.71343144326556,16.5388469536928,3,227,5.19660030346406,60.0016429076316,-7.86460906333333,-7.86460906333333,-0.0624378855555545,0,TRUE,4.55327018,TRUE,7.3275001,6,65
"mp-1571","PrPd3",0,4,2,73.4899108072398,10.3977042782754,18.3724777018099,3,221,4.18866769,90,-5.84211145,-5.84211145,-0.76197365375,0,TRUE,5.06588029,FALSE,4e-07,0,151
"mp-1572","GaSe",1.2406,8,2,203.720957510264,4.84768838820814,25.465119688783,6,187,3.77343736,90,-3.853180095,-4.089180095,-0.827176344921875,0.0002189750000001,FALSE,1.23152768,FALSE,0,0,65
"mp-1573","Sn2Pd",0,24,2,526.449627349608,8.67638190623054,21.935401139567,4,142,6.54137120048936,104.437905765093,-4.78841138625,-4.78841138625,-0.388736212916667,0,TRUE,7.88117714,FALSE,3e-07,0,96
"mp-1575","CaC2",2.0383,6,2,96.7699836911941,2.19984655955472,16.128330615199,1,15,3.89966990338901,75.4203066908895,-6.80581244166667,-6.80581244166667,0.0151645133333317,0.0151645133333326,FALSE,0.8736203,FALSE,0,0,26
"mp-1576","TmNi2",0,48,2,694.143576098957,10.9590520247204,14.4613245020616,3,227,9.93839642012862,60.0015535688558,-5.84278960833333,-5.84278960833333,-0.497420013888889,0,TRUE,5.92765295,FALSE,2.2e-05,0,97
"mp-1578","V3Rh",0,8,2,107.361723853814,7.91063407439003,13.4202154817268,3,223,4.75280313,90,-8.97574898375,-8.97574898375,-0.321742463750001,0,TRUE,6.39928473,FALSE,7e-07,0,91
"mp-1579","ErC2",0,3,2,40.4113967917577,7.8598762253043,13.4704655972526,4,139,4.00286463524212,126.141469423748,-7.87048706,-7.87048706,-0.195470461666667,0.080345016041667,FALSE,4.42875929,FALSE,0.0006112,0,74
"mp-1580","NbN",0,2,2,22.0669560100508,8.04521230702008,11.0334780050254,3,225,3.1483703158161,60,-10.0822422,-10.2627422,-1.0438422175,0.204358765,FALSE,7.95066188,FALSE,0.0001019,0,48
"mp-1581","As2O3",3.6306,20,2,336.566950915976,3.90440443182852,16.8283475457988,1,14,4.6046947,101.198408130414,-6.0493085155,-6.4615085155,-1.62984792675,0,TRUE,0.43351421,FALSE,0,0,49
"mp-1582","As2O3",4.0339,20,2,319.149438895533,4.11748646436909,15.9574719447767,1,14,4.55901805699519,90,-6.0428552895,-6.4550552895,-1.62339470075,0.0064532260000049,FALSE,0.34628004,FALSE,0,0,49
"mp-1584","YbIr2",0,6,2,104.271526200132,17.7557074179009,17.378587700022,3,227,5.28315755769262,60.0000055832254,-7.03107394166667,-7.03107394166667,-0.625581728333334,0,TRUE,5.73467152,FALSE,0.0010374,0,147
"mp-1585","V3Co",0,8,2,98.64469160734,7.1292619900999,12.3305864509175,3,223,4.6205241,90,-8.78622756125,-8.78622756125,-0.19621856,0,TRUE,6.06514754,FALSE,1e-07,0,73
"mp-1586","NdSb",0,2,2,65.7452579300214,6.71845737169183,32.8726289650107,3,225,4.53024993044419,90.0034222099869,-5.630637535,-5.726637535,-1.27806319875,0,TRUE,4.98241239,FALSE,1e-07,0,111
"mp-1588","C11F7",2.2206,36,2,511.582011437776,1.72101335626893,14.2106114288271,1,12,6.13417845440162,85.7972351806708,-6.89791217472222,-7.07757884138889,-0.694485886388889,0.366633629895836,FALSE,-0.5229405,FALSE,0.0019736,0,54
"mp-1589","TiCr2",0,12,2,159.155752630655,6.33764422723235,13.2629793858879,6,194,4.85969359,90,-9.15280462666667,-9.15280462666667,-0.0856089744444439,0.0195106883333338,FALSE,6.28257634,FALSE,2e-07,0,46
"mp-1590","Be12Cr",0,13,2,107.994363115231,2.46237406403156,8.30725870117165,4,139,4.12515600650504,82.0028279059152,-4.2449227,-4.2449227,-0.0506148653846151,0.0002578444230767,FALSE,4.72214929,TRUE,1.9194161,1,24
"mp-1591","Al4C3",1.3154,7,2,79.9024402431875,2.99175225015888,11.4146343204554,2,166,8.52522866408481,22.5455901374787,-6.18674570571429,-6.18674570571429,-0.0912743060714293,0,TRUE,7.3085706,FALSE,0,0,51
"mp-1592","Ag2Te",0,12,2,276.537714394627,8.24659314819132,23.0448095328856,1,14,4.50535051,112.560297243042,-2.99799348666667,-3.13866015333333,-0.202520853333333,0,TRUE,4.21154626,FALSE,0,0,99
"mp-1594","Ni2Ge",0,6,2,68.9119288508814,9.15797686591525,11.4853214751469,6,194,3.97981058,90,-5.669196345,-5.669196345,-0.274762606666666,0.0292625037499902,FALSE,9.13824892,FALSE,0.0003221,0,60
"mp-1595","Nb2O5",2.171,7,2,100.843633148563,4.37694951066784,14.4062333069376,1,12,3.85882429112172,90.8043252706675,-8.95629845571429,-9.44701274142857,-3.02757650767857,0.0075375482653079,FALSE,0.28196622,FALSE,0,0,73
"mp-1597","UO2",0,3,2,40.5590531546658,11.0552768529793,13.5196843848886,3,225,3.85656748394351,60,-10.3548882466667,-10.8128882466667,-3.75129243583333,0,TRUE,10.02742523,TRUE,2.0000001,1,100
"mp-1598","Na3P",0.4033,8,2,183.76447672198,1.80621820784584,22.9705595902475,6,194,4.92021676,90,-2.67701515125,-2.67701515125,-0.331795554497126,0,TRUE,1.44909869,FALSE,0,0,37
"mp-1599","BN",1.5671,8,2,72.4173476008723,2.27629217354337,9.05216845010904,1,8,6.67374450074035,89.4903540856196,-8.65087381375,-8.83137381375,-1.32343046583333,0.13794956375,FALSE,3.4488997,FALSE,2.3e-06,0,12
"mp-1600","BaHg11",0,36,2,998.776790086704,11.6902987697282,27.7437997246307,3,221,9.99592097,90,-0.579446232777778,-0.579446232777778,-0.141157986527778,0.021065355972222,FALSE,2.16231959,FALSE,1.7e-06,0,56
"mp-1601","TaRu",0,2,2,31.5322855582567,14.8514989931355,15.7661427791283,4,123,3.0409624,90,-10.88562193,-10.88562193,-0.319531845,0,TRUE,7.28884808,FALSE,3e-07,0,117
"mp-1602","SiS2",3.1072,6,2,156.651376047438,1.95500919506359,26.1085626745729,7,72,5.54870538027152,117.007811134784,-5.24204471833333,-5.57737805166667,-1.01130546375,0,TRUE,0.80820257,FALSE,0,0,30
"mp-1603","TmGa3",0,4,2,74.0820879348637,8.47512764440309,18.5205219837159,3,221,4.19988828,90,-3.9084619675,-3.9084619675,-0.518431094791667,0,TRUE,3.62214974,FALSE,2e-07,0,131
"mp-1604","Pt3O4",0,14,2,175.865602637151,12.2605479253244,12.5618287597965,3,223,5.60264674000007,89.9999936595446,-5.86353187571429,-6.25610330428571,-0.827509760714285,0,TRUE,3.98054978,FALSE,9.9e-06,0,180
"mp-1605","Ag3O4",0,14,2,182.604627194246,7.04942262734059,13.0431876567319,1,14,3.60103046987009,90.0024148883649,-4.05468289357143,-4.44725432214286,-0.406622485714285,0,TRUE,1.36934779,FALSE,0.0191946,0,118
"mp-1606","NbAu2",0,3,2,51.9526904287429,15.5606193275499,17.3175634762476,6,191,4.67646908,90,-5.66693892333333,-5.66693892333333,-0.117249243333333,0,TRUE,6.01766236,FALSE,0,0,120
"mp-1607","YbCu5",0,6,2,83.9129264388044,9.71176661690614,13.9854877398007,6,191,4.88787472,90,-3.899623405,-3.899623405,-0.227016466666666,0,TRUE,5.49804104,FALSE,3.3e-06,0,186
"mp-1608","ZrHg3",0,4,2,86.2185510321026,13.3468214919424,21.5546377580257,3,221,4.41774089,90,-2.430832905,-2.430832905,-0.06614747375,0.01871723,FALSE,3.76446507,FALSE,7e-06,0,200
"mp-1609","Cr3Ir",0,8,2,98.2680870453449,11.7679812690434,12.2835108806681,3,223,4.61463654,90,-9.51125867,-9.51125867,-0.0618645224999987,0.0183326008333324,FALSE,7.83432531,FALSE,1.65e-05,0,125
"mp-1610","TbS",0,2,2,42.4369344857865,7.47337057592674,21.2184672428932,3,225,3.9151924974749,59.9999876200164,-6.39212549,-6.64362549,-2.2582175065625,0,TRUE,6.46070305,FALSE,5.7e-06,0,81
"mp-1611","SmO",0,2,2,30.6250750715668,9.02026467365661,15.3125375357834,3,225,3.5118076449968,60,-7.596941595,-7.940441595,-3.107804171875,0.111125697708333,FALSE,6.44576476,FALSE,1.37e-05,0,70
"mp-1618","PPd6",0,28,2,421.866093393187,10.5409803163286,15.0666461926138,1,14,5.7092374446112,90,-5.52696487428571,-5.52696487428571,-0.31373725047619,0,TRUE,4.86722892,FALSE,0,0,245
"mp-1619","Ba3Si4",0,28,2,886.401075068623,3.92896105163008,31.6571812524508,4,136,8.6064682,90,-4.33069120928571,-4.29011978071429,-0.367520217857143,0,TRUE,3.66661322,FALSE,2.3e-06,0,154
"mp-1620","Si2W",0,3,2,40.3152550184168,9.88577752346272,13.4384183394723,4,139,3.21473396243058,110.855051509776,-8.28225231,-8.28225231,-0.34599688,0,TRUE,10.16406565,FALSE,0,0,88
"mp-1623","ErS",0,2,2,40.1863292921829,8.23626578343303,20.0931646460914,3,225,3.84471830362096,59.9999878729268,-6.30241644,-6.55391644,-2.2018321015625,0,TRUE,6.6035936,FALSE,8e-07,0,84
"mp-1625","SnSb",0,2,2,55.0154273448486,7.25814282678096,27.5077136724243,3,221,3.803308,90,-3.92002897,-4.01602897,0.0532575775000001,0.137170955,FALSE,7.50954032,FALSE,2.25e-05,0,101
"mp-1627","Mo2S3",0,10,2,168.04545355125,5.69321908450092,16.804545355125,1,11,3.209857,77.0424264328199,-7.5041892,-7.8059892,-0.985859235875002,0.0955407129999974,FALSE,7.641957,FALSE,0.0207705,0,74
"mp-1628","TeRh",0,4,2,79.9655651780782,9.57320534066824,19.9913912945195,6,194,4.02705931,90,-5.5658153225,-5.5658153225,-0.312008440833333,0.207009901875001,FALSE,8.42505123,FALSE,1e-07,0,97
"mp-1629","Th2Au",0,6,2,167.846071819217,13.0796890016837,27.9743453032028,4,140,5.99488500753402,75.9398013276369,-6.45443053666667,-6.45443053666667,-0.420564370000001,0,TRUE,7.13224585,FALSE,7.1e-06,0,169
"mp-1630","Zr3Hg",0,8,2,174.791268564328,9.0110974681097,21.848908570541,3,223,5.59118487,90,-6.66740822,-6.66740822,-0.180712656250001,0,TRUE,4.16632775,FALSE,3.16e-05,0,160
"mp-1632","NdB4",0,20,2,215.950504367746,5.76665154549307,10.7975252183873,4,127,4.12058789,90,-6.858685887,-6.858685887,-0.561542983833333,0,TRUE,5.79430285,FALSE,0,0,75
"mp-1634","MoSe2",1.301,6,2,129.452772630545,6.51271407913608,21.5754621050908,6,194,3.32226017,90,-6.61869303666667,-6.93335970333333,-0.987535348229166,0.0001847266666699,FALSE,3.8297572,FALSE,0,0,76
"mp-1635","TbMg",0,2,2,54.8228828513766,5.54989337548402,27.4114414256883,3,221,3.79886584,90,-3.20277169,-3.20277169,-0.0854486149999997,0,TRUE,3.21486021,FALSE,1.3e-06,0,77
"mp-1636","Mn3Sb",0,4,2,55.4537521247544,8.58134081845431,13.8634380311886,3,221,3.813382,90,-7.8265202725,-7.8745202725,0.0292415065517239,0.0924187447844824,FALSE,8.23593383,TRUE,6.0154646,3,101
"mp-1637","Re2P",0,12,2,164.770667142382,16.2611743802801,13.7308889285319,7,62,2.94754709,90,-10.3921084308333,-10.3921084308333,-0.291322805277777,0,TRUE,9.1311655,FALSE,1e-07,0,90
"mp-1638","SrAl2",0,6,2,140.761795640501,3.34045512548717,23.4602992734168,3,227,5.83892962671695,60.00000473339,-3.31447416666667,-3.31447416666667,-0.254259128888889,0.0072540833333336,FALSE,4.78387522,FALSE,6e-07,0,51
"mp-1639","BN",4.4506,2,2,11.9185693158249,3.4576935621326,5.95928465791244,3,216,2.56397060279598,60,-8.71146941,-8.89196941,-1.38402606208333,0.0773539675000005,FALSE,7.49445659,FALSE,0.0006126,0,12
"mp-1640","Ho2C",0,3,2,66.9322514177096,8.48157209411734,22.3107504725699,2,166,6.40624974195648,32.3530691266285,-6.43080653333333,-6.43080653333333,-0.299645455833333,0,TRUE,3.08003992,TRUE,0.328715,2,73
"mp-1641","CrSb",0,4,2,82.3361799250203,7.00855425580361,20.5840449812551,6,194,4.01756717776828,90,-6.7933845675,-6.8893845675,0.0016397875000002,0.0276453437499997,FALSE,7.35969896,TRUE,5.6954538,2,75
"mp-1642","Ta5N6",0,22,2,243.607673270199,13.4799296920011,11.0730760577363,6,193,5.19125827,90,-11.0670824304545,-11.2639915213636,-1.32691354863636,0,TRUE,7.84743247,FALSE,0,0,327
"mp-1644","PrSb",0,2,2,59.4606661422749,7.33543572003326,29.7303330711374,4,123,3.464378,90,-5.393140575,-5.489140575,-1.0341870775,0.247047005,FALSE,5.83809232,FALSE,1e-07,0,110
"mp-1645","Al9Rh2",0,22,2,350.024688772342,4.25679856326388,15.9102131260155,1,14,6.32186369126239,90.0000310458224,-4.90608635681818,-4.90608635681818,-0.502559246818182,0,TRUE,7.54701457,FALSE,0,0,149
"mp-1646","Li3Hg",0,4,2,68.2015115579465,5.39086199051064,17.0503778894866,3,225,4.5715238261538,119.354602795704,-1.78755336,-1.78755336,-0.27994111875,0,TRUE,1.08465505,FALSE,1.22e-05,0,86
"mp-1648","Al12Re",0,13,2,209.064016085401,4.05067692134912,16.0818473911847,3,204,6.47590447567362,109.471219424161,-4.558126,-4.558126,-0.143400065769231,0,TRUE,8.10268764,FALSE,0,0,75
"mp-1649","Fe3Pt",0,4,2,52.7704113304278,11.4106181970241,13.192602832607,3,221,3.750854,90,-7.943218065,-7.943218065,-0.0729188274999987,0.0430791175000004,FALSE,5.69606694,TRUE,8.3857695,4,130
"mp-1651","Th2Al",0,6,2,169.35295079964,9.62983428642046,28.22549179994,4,140,5.71498130214141,77.5245623845405,-6.41981909666667,-6.41981909666667,-0.228721653333333,0,TRUE,7.06791568,FALSE,3e-07,0,103
"mp-1652","ZnPd",0,4,2,55.985912031617,10.1928773479184,13.9964780079043,4,123,3.34912441,90,-3.7960934,-3.7960934,-0.57628069,0,TRUE,4.00876747,FALSE,0,0,76
"mp-1654","CeNi2",0,6,2,90.2965979967902,9.47086531818366,15.049432999465,3,227,5.03572646578672,59.9997159748436,-6.20847286666667,-6.20847286666667,-0.377352028333333,0,TRUE,9.38692474,TRUE,0.558648,2,86
"mp-1655","UIr2",0,6,2,107.038904743911,19.3130522409109,17.8398174573185,3,227,5.32948920907859,59.9999945576913,-10.2317374016667,-10.2317374016667,-0.575644611666667,0.0303980441666666,FALSE,10.96064435,TRUE,4.0505432,2,169