"material_id","formula_pretty","band_gap","nsites","nelements","volume","density","density_atomic","crystal_symmetry","symmetry_number","sides_abc","angles_abc","uncorrected_energy_per_atom","energy_per_atom","formation_energy_per_atom","energy_above_hull","is_stable","efermi","is_magnetic","total_magnetization","num_magnetic_sites","atomic_number"
"mp-1657","UAs2",0,6,2,131.153009480625,9.82176152953195,21.8588349134376,4,129,3.97574929,90,-7.52897640666667,-7.52897640666667,-0.659094133333332,0,TRUE,8.44113155,TRUE,3.4149526,2,125
"mp-1658","Tl2O3",0,40,2,598.424683062802,10.1396324866251,14.96061707657,3,206,9.19483178012766,109.471217891277,-4.605602757,-5.017802757,-1.10473227158333,0,TRUE,3.7723753,FALSE,1e-06,0,97
"mp-1659","ThRe2",0,12,2,237.04401741665,16.9372131042248,19.7536681180542,6,194,5.37276925,90,-10.8640112908333,-10.8640112908333,-0.0963737508333319,0,TRUE,7.82989882,FALSE,0.000136,0,165
"mp-1660","ErZn",0,2,2,43.1659187790422,8.95044781799643,21.5829593895211,3,221,3.50789832,90,-3.267989905,-3.267989905,-0.354258695,0,TRUE,3.05759173,FALSE,1.4e-06,0,98
"mp-1662","Te2Au",0,12,2,301.649327858389,9.95646511484978,25.1374439881991,2,164,4.15262811,109.558081725563,-3.25853964666667,-3.53987298,-0.353041717777777,0.0181991562499996,FALSE,6.467296,FALSE,0,0,131
"mp-1664","V3Pd",0,8,2,111.197459421281,7.74272402070358,13.8996824276602,3,223,4.80838954493668,90.0998092735165,-8.24064767125,-8.24064767125,-0.132747666250001,0,TRUE,6.06497912,TRUE,9.3e-05,6,92
"mp-1665","YbFe2",0,6,2,90.6022865056653,10.4369394342703,15.1003810842775,3,227,5.04140264928323,60,-6.06433850166667,-6.06433850166667,0.0955450649999996,0.0955450649999996,FALSE,3.92916947,TRUE,6.9107089,6,96
"mp-1666","Th2S5",1.7513,28,2,600.850582113224,6.90249778467161,21.4589493611866,7,60,7.6466928,90,-6.80635923535714,-7.16564494964286,-2.09279268758929,0,TRUE,6.47335138,FALSE,0,0,154
"mp-1667","Co2Ge",0,6,2,69.6741289101001,9.08065326342609,11.61235481835,6,194,4.00527980144659,90,-6.37752515166667,-6.37752515166667,-0.0976373366666673,0.0522390008333326,FALSE,7.32896216,TRUE,0.3733636,4,59
"mp-1668","YbAu2",0,3,2,61.2094356326341,15.3813057681557,20.403145210878,4,139,3.69824592891152,110.90025147821,-3.50702145666667,-3.50702145666667,-0.811230696666666,0,TRUE,3.69197453,FALSE,0,0,149
"mp-1670","MnPt",0,4,2,60.1409434490248,13.806613246286,15.0352358622562,4,123,3.45370537,90,-7.962775905,-7.962775905,-0.346201598965517,0,TRUE,5.99412069,TRUE,9.0720762,2,103
"mp-1671","YbSi2",0,3,2,58.5221778420025,6.5037535175473,19.5073926140008,6,191,4.0159707,90,-4.48299358666667,-4.43566025333333,-0.305578806666667,0.0685371133333339,FALSE,5.4869196,FALSE,0,0,84
"mp-1672","CaS",2.3819,2,2,46.4140575305273,2.58103420074687,23.2070287652636,3,225,4.03386611624655,59.9999939671057,-5.219457435,-5.470957435,-2.3999325615625,0,TRUE,2.66171321,FALSE,0,0,36
"mp-1673","Tb5Ge4",0,36,2,875.110415800445,8.23665201737287,24.3086226611235,7,62,7.67628329,90,-5.47887946083333,-5.47887946083333,-0.849552580833333,0,TRUE,3.56798895,TRUE,1.4401807,4,356
"mp-1674","PrSe",0,2,2,54.7588379991074,6.66739535839834,27.3794189995537,3,225,4.26242016617301,60.000020300336,-5.97478314,-6.21078314,-2.07237452367188,0,TRUE,5.24585854,FALSE,1.05e-05,0,93
"mp-1675","Ho3Ge4",0,14,2,302.322051921752,8.62726315716689,21.5944322801252,7,63,4.03565346,90,-5.38426928357143,-5.38426928357143,-0.778649565,0,TRUE,5.08666256,FALSE,0,0,230
"mp-1677","Be2Mo",0,12,2,124.551011121109,6.07758305352365,10.3792509267591,6,194,4.44186247001239,90,-6.42807510583333,-6.42807510583333,-0.3199164925,0,TRUE,5.87645317,FALSE,0,0,46
"mp-1678","PuRh3",0,4,2,65.0317739983767,14.1132139656428,16.2579434995942,3,221,4.02138207,90,-9.503804685,-9.503804685,-0.4136142,0,TRUE,9.4767877,TRUE,3.6251027,1,90
"mp-1679","La2Ni7",0,36,2,526.183041988451,8.69320835759683,14.6161956107903,6,194,4.98296162,90,-5.90767141222222,-5.90767141222222,-0.315119082222222,0.0002198827777775,FALSE,8.76272872,TRUE,5.0409469,26,225
"mp-1681","La3Sn",0,4,2,127.916048178804,6.95062491182958,31.979012044701,3,221,5.03858216,90,-5.182072705,-5.182072705,-0.477674412500001,0,TRUE,8.5460247,FALSE,0.0014773,0,164
"mp-1682","ZrAs",0,8,2,164.064332519877,6.72641652957134,20.5080415649846,6,194,3.83287042,90,-7.7456890075,-7.7456890075,-1.14227949,0,TRUE,5.62247952,FALSE,3e-07,0,73
"mp-1683","ZrSe3",0.3979,8,2,199.411601823184,5.46437122942146,24.926450227898,1,11,3.77994874,97.6071411161156,-5.8069509225,-6.1609509225,-1.40209215675781,0,TRUE,3.04578164,FALSE,0,0,108
"mp-1684","ZnAu",0,2,2,31.2574381174816,13.9385985763892,15.6287190587408,3,221,3.15005251,90,-2.482554825,-2.482554825,-0.21574202,0,TRUE,5.75811082,FALSE,0,0,109
"mp-1687","BaPd2",0,6,2,131.043006324917,8.87442984774623,21.8405010541529,3,227,5.70133211750654,59.9999941140785,-4.670703435,-4.670703435,-0.577790581666667,0,TRUE,4.22783624,FALSE,1.2e-06,0,102
"mp-1688","ErAs",0,2,2,47.4911370270481,8.46790312145163,23.7455685135241,3,225,4.06483137868562,60.0000006012784,-6.126272195,-6.126272195,-1.5128535875,0,TRUE,4.22854133,FALSE,2e-07,0,101
"mp-1689","HfRe2",0,12,2,205.781234547199,17.7819443246927,17.1484362122666,6,194,5.25547154,90,-12.0118395125,-12.0118395125,-0.396425045833335,0,TRUE,6.57116935,FALSE,5.3e-06,0,147
"mp-1690","TaS2",0,3,2,61.1280914286212,6.65751841074104,20.3760304762071,2,164,3.38285756,90,-7.73624659666667,-8.07157993,-1.36135414208333,0.0224417133333325,FALSE,3.9492743,FALSE,1.5e-06,0,89
"mp-1691","La2Ni3",0,10,2,189.175728608392,7.96829461684096,18.9175728608392,7,64,4.9692883,90,-5.76965554,-5.76965554,-0.32717069,0.0094775303333332,FALSE,8.91472173,FALSE,4e-07,0,113
"mp-1692","CuO",0,4,2,42.9164487435527,6.15559992196079,10.7291121858882,4,131,2.87950096394658,89.8065116180152,-5.12287878,-5.46637878,-0.943431089374999,0,TRUE,4.4961494,TRUE,9.44e-05,2,37
"mp-1694","Yb2Ge",0.0226999999999999,12,2,305.012767978,9.11831885040175,25.4177306648333,7,62,4.76534424,90,-3.22268133666667,-3.22268133666667,-0.655266531666666,0,TRUE,2.67237842,FALSE,0,0,102
"mp-1695","Y2C3",0,20,2,279.738044525066,5.07755010088917,13.9869022262533,3,220,7.13604797843089,109.471214858867,-8.379306053,-8.379306053,-0.255518312166667,0.0442951846599992,FALSE,5.43559367,FALSE,2.1e-06,0,51
"mp-1696","CdPd",0,4,2,68.1446687236034,10.6648819721177,17.0361671809009,4,123,3.69349435,90,-3.461471195,-3.461471195,-0.41008541,0,TRUE,3.54495672,FALSE,0,0,94
"mp-1697","TbPt2",0,6,2,112.020516310567,16.2789993996708,18.6700860517611,3,227,5.41091714137318,59.9999926375701,-6.68930639166667,-6.68930639166667,-1.09709547833333,0,TRUE,6.28610314,FALSE,7e-07,0,143
"mp-1698","SrSn",0,4,2,139.849020540076,4.89984161903222,34.962255135019,7,63,4.55719316,112.888828875058,-3.5255838475,-3.5255838475,-0.676051193333334,0,TRUE,4.35311311,FALSE,7e-07,0,88
"mp-1699","AlCr2",0,3,2,37.0450184823207,5.87088409060315,12.3483394941069,4,139,2.93077896030041,107.833518598889,-7.80665739,-7.80665739,-0.122767133333333,0,TRUE,7.62680443,FALSE,6.3e-06,0,37
"mp-1700","AlN",3.3056,2,2,20.8345466905188,3.2668131674492,10.4172733452594,3,216,3.08863292559854,59.9999988952375,-7.42358863,-7.60408863,-1.5630532525,0.0213437524999999,FALSE,5.87272095,FALSE,0,0,20
"mp-1702","LaRh2",0,6,2,112.221953620804,10.2014828091413,18.7036589368007,3,227,5.41415910008517,59.9999950236427,-7.24204678333333,-7.24204678333333,-0.687172501666667,0,TRUE,8.30560054,FALSE,1e-07,0,102
"mp-1703","YbZn",0,2,2,43.9939944797627,9.00018024218834,21.9969972398814,3,221,3.53018771,90,-1.72618271,-1.72618271,-0.326506765,0,TRUE,1.99916362,FALSE,6.8e-06,0,100
"mp-1704","Tb2Tl",0,6,2,169.254165847101,10.2471919029772,28.2090276411835,6,194,5.39678933,90,-4.14042128,-4.14042128,-0.263296164444444,0.0117159944444438,FALSE,4.80048895,TRUE,1.7933957,4,146
"mp-1707","BaN6",3.8146,14,2,230.193299704087,3.19374094846714,16.4423785502919,1,11,4.41020549,99.2431490656857,-7.60411081,-7.91353938142857,-0.493833025714285,0,TRUE,0.28782295,FALSE,0,0,91
"mp-1708","YTe",0,2,2,58.4554366343731,6.15026493294613,29.2277183171866,3,225,4.35625508332857,60,-6.112546005,-6.323546005,-1.51865750166667,0.0132384700000001,FALSE,6.54196047,FALSE,1.2e-06,0,91
"mp-1709","U2Ti",0,3,2,54.6957507616797,15.9061283455478,18.2319169205599,6,191,4.75988368,90,-10.2373074666667,-10.2373074666667,-0.0778701211111112,0,TRUE,12.58589349,FALSE,0.0021499,0,114
"mp-1711","Er3Ge4",0,14,2,298.459370638853,8.81665427087358,21.3185264742038,7,63,4.01528955,90,-5.36757680714286,-5.36757680714286,-0.768252828571429,0,TRUE,5.13417996,FALSE,0,0,232
"mp-1713","CsCd13",0,28,2,680.1825866295,7.78412117065423,24.2922352367678,3,226,9.87143184330131,60.0000002046827,-0.964225662857143,-0.964225662857143,-0.0432992877093596,0,TRUE,2.27593105,FALSE,0,0,55
"mp-1714","FeSi2",0.6966,24,2,292.746025055944,5.08309396306834,12.1977510439977,7,64,6.23647349351346,89.999707294013,-6.88318751666667,-6.83585418333333,-0.395635093333334,0,TRUE,9.10604776,FALSE,0,0,40
"mp-1716","Rh2O3",0.5597,20,2,203.432438459291,8.28697911217008,10.1716219229646,7,60,5.18839384,90,-6.5737209945,-6.9859209945,-1.07218461975,0.0256380119999946,FALSE,5.27646049,FALSE,0,0,61
"mp-1718","ZrFe2",0,6,2,89.2893190331169,7.54729967276603,14.8815531721862,3,227,5.01693147963759,60,-8.77659777333333,-8.77659777333333,-0.280683423333334,0,TRUE,4.96756242,TRUE,7.1157177,6,66
"mp-1719","PuN",0,2,2,30.2937746604381,14.1425163947645,15.146887330219,3,225,3.4990987032143,59.9999878363584,-12.58780084,-12.76830084,-1.4661342125,0,TRUE,11.80220826,TRUE,4.8708401,2,7
"mp-1720","SmRu2",0,6,2,109.122241722365,10.7281524231468,18.1870402870609,3,227,5.36385133547469,60.0001199611539,-7.95497407666667,-7.95497407666667,-0.199177005,0.0210288116666665,FALSE,5.61785246,TRUE,0.7608986,4,106
"mp-1721","CsC10",0.7185,66,2,867.813244173831,2.90479821692175,13.1486855177853,3,204,10.4075711412312,109.471220634491,-8.26656597075758,-8.26656597075758,0.204530147157784,0.24062617060606,FALSE,3.78323944,FALSE,8.1e-05,0,55
"mp-1722","Zn13Fe",0,14,2,197.292124704659,7.62684979910329,14.0922946217614,1,12,5.07502857701461,70.376538043362,-1.80560914571429,-1.80560914571429,-0.0308457071428573,0,TRUE,3.2057723,TRUE,1.3688567,1,26
"mp-1723","UAl3",0,4,2,78.3952574486375,6.756378102962,19.5988143621594,3,221,4.27986327,90,-5.758439265,-5.758439265,-0.12640489,0.0228804468749999,FALSE,8.55819662,TRUE,2.6628283,1,118
"mp-1724","Er2Fe17",0,38,2,512.938758410209,8.31264100631151,13.498388379216,6,194,8.50839009932837,90,-8.07791716473684,-8.07791716473684,-0.0186646284210526,0.0232577614035101,FALSE,4.5593183,TRUE,78.9867185,38,68
"mp-1725","CaZn2",0,6,2,124.112782407932,4.57292921518674,20.6854637346553,7,74,4.5492517185334,80.247941663312,-1.811268145,-1.811268145,-0.302905778333333,0,TRUE,2.69810837,FALSE,0,0,50
"mp-1726","KO3",0.6496,16,2,282.280308668779,2.04941168579816,17.6425192917987,4,140,7.21840626668263,104.53834369474,-4.64486870875,-4.64486870875,-0.6572524385625,0.0837715340625004,FALSE,-0.47101146,TRUE,3.9999536,12,35
"mp-1727","SrSi2",0,6,2,136.495524896805,3.49858463280753,22.7492541494676,4,141,4.43786200374768,106.957397350629,-4.54572067333333,-4.49838734,-0.318344168888889,0,TRUE,5.03727343,FALSE,0,0,52
"mp-1728","LuRh2",0,6,2,101.814216917841,12.4205982984094,16.9690361529736,3,227,5.24132637046018,59.9999984158322,-7.184558445,-7.184558445,-0.768036358333333,0,TRUE,5.32962656,FALSE,1.51e-05,0,116
"mp-1729","SmFe2",0,6,2,102.117874473985,8.52239168987764,17.0196457456642,3,227,5.24651364330851,60.0001753670497,-7.19675784833333,-7.19675784833333,0.0227850033333337,0.0227850033333334,FALSE,4.49797437,TRUE,7.9517048,6,88
"mp-1730","BaGe",0,4,2,133.831196912756,5.210420503436,33.457799228189,7,63,4.3290124,112.727487412979,-3.86722721,-3.86722721,-0.5962258125,0,TRUE,3.48977955,FALSE,1e-07,0,88
"mp-1731","LaCo5",0,6,2,86.5244937253212,8.32090765963093,14.4207489542202,6,191,3.960388,60.0000014656863,-6.763648225,-6.763648225,-0.0173822116666665,0.0334599653260871,FALSE,6.65955134,TRUE,6.7631264,6,165
"mp-1734","CaZn5",0,6,2,102.307368727399,5.95873094314199,17.0512281212332,6,191,5.30701627,90,-1.61199429833333,-1.61199429833333,-0.22794131,0,TRUE,2.82309759,FALSE,1.8e-06,0,140
"mp-1735","BaC2",1.616,3,2,70.5891927910629,3.79555723673504,23.5297309303543,4,139,4.78754101412521,125.192029024487,-6.6974582,-6.6974582,0.0946437749999991,0.159782247777779,FALSE,0.39695293,FALSE,0.0004405,0,62
"mp-1738","SmAs",0,2,2,52.7152699830116,7.09640485397706,26.3576349915058,3,225,4.20872390462249,59.9999883569806,-6.20851664,-6.20851664,-1.51966437,0,TRUE,3.77968835,FALSE,2e-07,0,95
"mp-1739","Hf5Ge3",0,16,2,301.848273639037,12.2168183448719,18.8655171024398,6,193,7.94168585,90,-8.634814774375,-8.634814774375,-0.677936185,0.0023189824999985,FALSE,6.19170967,FALSE,1e-07,0,352
"mp-1742","GdRh",0,2,2,40.990568687861,10.5389699379504,20.4952843439305,3,221,3.44795282,90,-11.522568525,-11.522568525,-0.80235347,0,TRUE,4.42112859,TRUE,6.9946396,2,109
"mp-1743","Mo5As4",0,9,2,152.642902991681,8.47862258782688,16.9603225546312,4,87,3.29365389973729,86.8308497287718,-8.38117200222222,-8.38117200222222,-0.285091538888889,0,TRUE,7.36823767,FALSE,0,0,267
"mp-1745","Sm2O3",3.7443,15,2,224.530068701026,7.73696188244813,14.9686712467351,1,12,3.61816616,99.5658983419962,-8.27347506,-8.68567506,-3.83022737925,0.0324884642499991,FALSE,1.9109074,FALSE,0,0,78
"mp-1746","MgF2",6.7743,12,2,125.927710642439,3.28615784148416,10.4939758868699,3,205,5.012339,90,-5.26308125083333,-5.57108125083333,-3.76333525583333,0.0660783458333345,FALSE,-0.12519911,FALSE,0,0,21
"mp-1747","K2Te",2.141,3,2,136.955127111279,2.49522088936319,45.6517090370929,3,225,5.78581337634797,60.0000073541795,-2.81205921333333,-2.95272588,-1.16469128422222,0,TRUE,-0.14381336,FALSE,0,0,71
"mp-1748","NdS",0,2,2,47.6015650721128,6.15031587241994,23.8007825360564,3,225,4.06797906707099,60.0000019543985,-6.47647505,-6.72797505,-2.2756764003125,0,TRUE,5.9824817,FALSE,7e-07,0,76
"mp-1749","CaAl4",0,5,2,104.717196982685,2.34695625438614,20.943439396537,4,139,4.31792522479682,109.737960885676,-3.592371044,-3.592371044,-0.194790404,0.0048514399999999,FALSE,5.64549373,FALSE,5e-07,0,59
"mp-1751","ThSb",0,2,2,64.873431503345,9.0560262761343,32.4367157516725,3,225,4.51018113786525,59.9999855188301,-6.67470303,-6.77070303,-0.999273285,0,TRUE,7.37482433,FALSE,1.22e-05,0,141
"mp-1752","HoSi2",0,3,2,56.5999673038273,6.48670656585347,18.8666557679424,6,191,4.08429678585298,90,-5.65190724333333,-5.60457391,-0.460225600000001,0.094102358333334,FALSE,6.71828174,FALSE,0.001257,0,81
"mp-1753","ThAs",0,2,2,54.3708740249403,9.37484483082691,27.1854370124702,3,225,4.25233093880374,60.0000000575148,-7.43229727,-7.43229727,-1.3958089425,0,TRUE,6.9092868,FALSE,2.1e-06,0,123
"mp-1754","UHg2",0,3,2,70.5779672034288,15.0391320242252,23.5259890678096,6,191,3.032676,119.999993074669,-3.85810996333333,-3.85810996333333,0.10814695,0.10814695,FALSE,6.56491061,TRUE,3.4260111,1,172
"mp-1755","ZnAu3",0,16,2,266.603798088922,16.3512486398973,16.6627373805576,7,64,5.65198211687912,90,-2.91809504125,-2.91809504125,-0.14774763875,0,TRUE,4.65046605,FALSE,0,0,188
"mp-1756","ThB6",0,7,2,69.3750353323455,7.10660237216893,9.91071933319222,3,221,4.10898358,90,-7.27304749571429,-7.27304749571429,-0.488731942142857,0,TRUE,8.56450316,FALSE,1e-07,0,115
"mp-1757","DyFe2",0,6,2,97.5579949349207,9.33400090837822,16.2596658224868,3,227,5.16724778663389,60,-7.26107977166667,-7.26107977166667,-0.0788033516666655,0,TRUE,4.45993218,TRUE,7.7037867,6,92
"mp-1759","UF5",0,24,2,358.847129037962,6.16412073966803,14.9519637099151,4,122,8.6005184756375,95.6069843061099,-6.89732835541667,-7.28232835541667,-3.8075275475,0.0721445595833332,FALSE,1.84269538,TRUE,3.9994573,4,128
"mp-1761","LuIr2",0,6,2,103.913236454799,17.8785156941804,17.3188727424666,3,227,5.27709997842436,60.0000013715926,-8.24663942,-8.24663942,-0.84736646,0,TRUE,6.82852627,FALSE,0,0,148
"mp-1762","ErRh2",0,6,2,103.523748465784,11.9682163514628,17.2539580776307,3,227,5.27049862746032,59.9999906131128,-7.190962205,-7.190962205,-0.758850688333334,0,TRUE,5.38840693,FALSE,1.41e-05,0,113
"mp-1766","TmS",0,2,2,39.513909541451,8.44682402814654,19.7569547707255,3,225,3.82315272363506,59.9999975598418,-6.232069875,-6.483569875,-2.17742722989583,0,TRUE,6.65265267,FALSE,7.4e-06,0,85
"mp-1767","Tm2O3",3.8684,40,2,560.157672156708,9.1509462975295,14.0039418039177,3,206,8.99450822000155,109.471220427654,-8.4396500985,-8.8518500985,-4.09350270241667,0,TRUE,1.22350522,FALSE,0,0,85
"mp-1769","SbPd",0,4,2,82.5864905402246,9.17587856653722,20.6466226350562,6,194,4.11157327,90,-5.096007585,-5.192007585,-0.53756606,0,TRUE,7.42785364,FALSE,1e-07,0,97
"mp-1770","Mg5Ga2",0,14,2,281.308993399807,3.08097182043357,20.0934995285576,7,72,5.97470625079984,115.232425097103,-2.13698148071429,-2.13698148071429,-0.12875401,0,TRUE,3.57061276,FALSE,0,0,79
"mp-1771","NO2",2.7046,12,2,153.691659778662,1.98823879287879,12.8076383148885,1,14,4.69164643,117.109069838474,-6.30478047666667,-6.76278047666667,-0.686156360833333,0.0009720133333335,FALSE,-2.0740346,FALSE,0,0,15
"mp-1773","ReB2",0,6,2,54.6813809811642,12.622511263616,9.1135634968607,6,194,2.90676192,90,-9.02895337833333,-9.02895337833333,-0.427849802777777,0,TRUE,7.77605134,FALSE,2.3e-06,0,80
"mp-1774","ErB2",0,3,2,35.1107972950498,8.93298653410797,11.7035990983499,6,191,3.27024362,90,-6.59761273,-6.59761273,-0.622111946111112,0,TRUE,4.91684029,FALSE,4.7e-06,0,73
"mp-1775","SnAu",0,4,2,92.1363114781148,11.3786468510683,23.0340778695287,6,194,4.36102709,90,-3.826022075,-3.826022075,-0.1842951475,0,TRUE,6.88642866,FALSE,2e-07,0,129
"mp-1776","UN2",0.6927,3,2,36.418443029061,12.130492475227,12.139481009687,3,225,3.72059320482845,59.9999923841422,-10.6771010533333,-10.91776772,-1.5963011,0,TRUE,9.78672188,FALSE,0,0,99
"mp-1777","Li15Ge4",0,38,2,594.489590868183,2.20482668217372,15.6444629175838,3,220,9.17463407246615,109.471217818815,-2.80798628473684,-2.80798628473684,-0.327672894210526,0,TRUE,0.68312728,FALSE,9.5e-06,0,96
"mp-1778","BeO",6.8477,2,2,13.6910676451536,3.03356247335257,6.84553382257679,3,216,2.68524601806046,59.9999962715378,-7.09646461,-7.43996461,-3.096913821875,0.0065781275,FALSE,2.40466533,FALSE,0,0,12
"mp-1779","YbTe",1.4678,2,2,62.7511891271201,7.95561760544975,31.3755945635601,3,225,4.46045304463962,60.0000092084467,-4.007028955,-4.218028955,-1.87657186833333,0,TRUE,3.36513253,FALSE,0,0,122
"mp-1780","ScRh",0,2,2,33.2901034388137,7.37545473596725,16.6450517194068,3,221,3.21690608,90,-7.87959959,-7.87959959,-1.0312111025,0,TRUE,5.66018101,FALSE,1.8e-06,0,66
"mp-1781","NdRu2",0,6,2,111.25780537183,10.3396043278897,18.5429675619716,3,227,5.39858948052445,60.0000133877002,-7.90845954333333,-7.90845954333333,-0.136142039166666,0.0205866749999996,FALSE,5.84819148,TRUE,0.7836302,4,104
"mp-1782","ScSe",0,2,2,40.8699376112214,5.0346838012513,20.4349688056107,3,225,3.86639671651314,59.9999899884809,-6.503077185,-6.739077185,-1.82488689367187,0,TRUE,6.26959741,FALSE,5.26e-05,0,55
"mp-1783","MnS",0,2,2,30.2654036955302,4.77350167171219,15.1327018477651,3,216,3.49800566791952,60.0000066551913,-7.121073265,-7.372573265,-0.723340685528017,0.0789604074999967,FALSE,3.85535764,TRUE,0.2883334,1,41
"mp-1784","CsF",5.2626,2,2,54.3322133632616,4.64259175443894,27.1661066816308,3,225,4.2513231826901,60.0000077926673,-4.015024705,-4.246024705,-2.84258403521552,0,TRUE,-1.19267444,FALSE,0,0,64
"mp-1785","PrSb",0,2,2,67.3357338999688,6.47753977115585,33.6678669499844,3,225,4.56653588257492,60.0000030910609,-5.64018758,-5.73618758,-1.2812340825,0,TRUE,4.9279972,FALSE,1e-07,0,110
"mp-1786","Ti3Au",0,8,2,131.562073486652,8.59709395198713,16.4452591858315,3,223,5.08600641,90,-7.09343202625,-7.09343202625,-0.35334251375,0,TRUE,6.09322946,FALSE,1.4e-06,0,123
"mp-1787","NdMg3",0,4,2,100.859123854493,3.57526090159064,25.2147809636232,3,225,5.2248840715307,60.0000126689053,-2.5171798375,-2.5171798375,-0.124932941875,0,TRUE,2.8540209,FALSE,1.2e-06,0,84