"material_id","formula_pretty","band_gap","nsites","nelements","volume","density","density_atomic","crystal_symmetry","symmetry_number","sides_abc","angles_abc","uncorrected_energy_per_atom","energy_per_atom","formation_energy_per_atom","energy_above_hull","is_stable","efermi","is_magnetic","total_magnetization","num_magnetic_sites","atomic_number"
"mp-3911","LaMo5O8",0.3077,56,3,756.453563822293,6.55564142454608,13.5080993539695,1,14,9.368064,68.7144004343547,-7.27695373571429,-8.81309659285714,-1.76039892535714,0.351808858392857,FALSE,6.23047738,TRUE,60.0027927,20,281
"mp-3915","BaHgO2",2.2727,4,3,97.4680753823618,6.30216237309382,24.3670188455905,2,166,6.93225230824543,34.922542637775,-4.64858084,-4.99208084,-1.963072658125,0,TRUE,-0.14778873,FALSE,0,0,144
"mp-3916","K2(SO2)3",3.444,44,3,828.210415101476,2.16848196522537,18.822963979579,7,62,5.815563,90,-5.52162296340909,-5.89635023613636,-1.86814298503409,0.0421074904626603,FALSE,0.03239085,FALSE,5.79e-05,0,43
"mp-3917","Cd2GeO4",1.0923,28,3,388.056152549708,6.18691684545035,13.8591483053467,7,62,5.23014732,90,-5.1312777675,-5.52384919607143,-1.77305459321429,0,TRUE,1.03900224,FALSE,0,0,104
"mp-3919","KBO2",4.1255,24,3,338.7545188039,2.40902941282471,14.1147716168292,2,167,7.74682229815782,110.825866102341,-6.727252315,-7.070752315,-2.64996027991667,0,TRUE,-0.23014697,FALSE,0,0,32
"mp-3922","AgSbS2",1.3716,16,3,387.339566749791,5.03740912736856,24.208722921862,1,15,4.62089793,97.9488006494915,-3.99888801,-4.25038801,-0.441773765729167,0,TRUE,3.67345084,FALSE,0,0,114
"mp-3923","Th2MnN3",0,6,3,87.3678618884481,10.6631808836436,14.5613103147413,7,71,3.53891547792688,106.340732261078,-9.51386185,-9.69436185,-1.5278257554885,0,TRUE,8.12014098,TRUE,3.0117722,1,129
"mp-3924","LiNbO2",1.5714,8,3,77.2656384718395,5.66709178884918,9.65820480897994,6,194,2.92178487,90,-7.81942041,-8.16292041,-2.68701907770833,0,TRUE,5.2444097,FALSE,0,0,52
"mp-3925","Co2CuS4",0,14,3,209.059418750741,4.91939664345373,14.9328156250529,3,227,6.66185094771258,60.0000018398249,-5.39988416214286,-5.68731273357143,-0.707078201071428,0,TRUE,5.65528273,FALSE,0.0002515,0,104
"mp-3926","NbAg7S6",0.9346,28,3,632.476866146454,5.46290749282925,22.5884595052305,1,7,7.453068,55.2308981809592,-4.13939006857143,-4.35496149714286,-0.444397478244048,0.0351156733333342,FALSE,2.04157302,FALSE,0.0005545,0,403
"mp-3927","CaAsAu",0,6,3,134.569502454008,7.69909974600797,22.4282504090014,6,194,4.41259926,90,-4.18290109833333,-4.18290109833333,-0.870034336666667,0,TRUE,4.90310422,FALSE,0,0,132
"mp-3928","Na5P3O10",4.5352,36,3,456.758392494682,2.67473033046996,12.6877331248523,1,15,8.35578876511872,87.2803272372036,-6.25760923055556,-6.63927589722222,-2.62153028056992,0,TRUE,0.55413335,FALSE,0,0,74
"mp-3930","Sc2MnS4",0,14,3,298.8384271586,3.03514920260118,21.3456019399,3,227,7.50439800074076,60.0004342235121,-7.02748841142857,-7.31491698285714,-1.83309513006158,0,TRUE,3.93220156,TRUE,10.0000002,2,94
"mp-3931","SmSF",1.2297,6,3,103.408144301949,6.46895720252895,17.2346907169915,4,129,3.87544003,90,-6.58600378666667,-6.90767045333333,-3.31883213020833,0,TRUE,3.90254988,FALSE,0,0,87
"mp-3932","Ca3Si2O7",4.5351,48,3,663.826967467349,2.88569653664905,13.8297284889031,1,14,8.99406,60.6719153801864,-7.34708900520833,-7.74783900520833,-3.45665094864583,0.0088070206944452,FALSE,1.81275978,FALSE,0.0011595,0,102
"mp-3933","Mg2PN3",3.5519,12,3,129.069644092947,3.12897683912448,10.7558036744122,7,36,4.70687708,119.644517606213,-6.53980640916667,-6.72030640916667,-1.11641517888889,0,TRUE,5.39609042,FALSE,0,0,41
"mp-3934","Cu3PS4",1.0202,16,3,273.496984997866,4.24849823558903,17.0935615623666,7,31,6.03301481,90,-4.55078487875,-4.80228487875,-0.520194630729167,0,TRUE,5.41957682,FALSE,0,0,121
"mp-3938","ZrSiS",0,6,3,102.547072797055,4.90239777852068,17.0911787995092,4,129,3.55425113,90,-7.23755387666667,-7.38155387666667,-1.34506436770833,0,TRUE,7.6002603,FALSE,0,0,70
"mp-3939","Sm(SiNi)2",0,5,3,76.2364096752339,7.05539732994352,15.2472819350468,4,139,3.99682237163617,111.119063800776,-6.262089522,-6.233689522,-0.807790411000001,0.230380386571426,FALSE,6.89214028,FALSE,1e-07,0,104
"mp-3941","LiYF4",7.3893,12,3,139.753521124016,4.0835865802452,11.6461267603347,1,13,5.28877403,89.2541977652243,-6.38305791666667,-6.69105791666667,-4.02083960833333,0.0192947008333339,FALSE,-1.73539697,FALSE,0,0,69
"mp-3942","TmSnPd2",0,4,3,74.9682096512423,11.0856800074012,18.7420524128106,3,225,4.73293709479047,60.0000012598931,-5.608677715,-5.608677715,-0.897384990416666,0,TRUE,6.53792617,FALSE,5.8e-06,0,165
"mp-3943","BaTi2O5",1.8301,24,3,315.810419417893,4.93820032983569,13.1587674757456,1,12,8.75671549089098,77.4444534514065,-8.385988015,-8.815363015,-3.50993769880208,0.0229679431249998,FALSE,2.58430325,FALSE,0.0007538,0,110
"mp-3944","ZrAlNi2",0,4,3,56.1868436520232,6.9626669983422,14.0467109130058,3,225,4.29915626499723,59.9999905627257,-6.5614386225,-6.5614386225,-0.5980511675,0,TRUE,6.97627983,FALSE,4.1e-05,0,81
"mp-3949","K7LiSi8",1.6127,64,3,1951.96544829732,1.71948154952576,30.4994601296456,3,205,12.4975258,90,-3.4210368965625,-3.3855368965625,-0.0677706630833339,0,TRUE,1.35091689,FALSE,0,0,215
"mp-3950","ErInCu",0,9,3,182.797927312125,9.41893328203112,20.3108808124583,6,189,7.36549834,90,-4.21665375333333,-4.21665375333333,-0.410450683333334,0,TRUE,6.39778492,FALSE,0,0,146
"mp-3951","Ti2CuS4",0,14,3,248.243461448122,3.84679943169376,17.731675817723,3,227,7.05441962055324,60.0009588037832,-6.35604829928571,-6.64347687071429,-1.4383354177381,0,TRUE,5.55012411,FALSE,0.0020471,0,99
"mp-3952","BaY2O4",3.2515,28,3,438.515539827605,5.74274414962518,15.6612692795573,7,62,3.46103049,90,-8.21313718642857,-8.605708615,-3.65732689904762,0,TRUE,1.98381562,FALSE,0,0,119
"mp-3953","CaCO3",4.9995,10,3,122.949507220852,2.703519701081,12.2949507220852,2,167,6.35844783330001,46.3714090720402,-7.491437566,-7.903637566,-2.68877126475,0,TRUE,1.09729877,FALSE,0,0,42
"mp-3954","PrPS4",2.277,48,3,1182.07355123142,3.37303234379136,24.6265323173212,4,142,12.4803324011897,127.664967000047,-5.524870878125,-5.86020421145833,-1.40353625659722,0,TRUE,2.60632285,FALSE,0,0,122
"mp-3955","AlPO4",5.6177,18,3,232.383659163757,2.61430889495698,12.9102032868754,2,154,4.95155234069037,89.9991936916332,-7.47871362944444,-7.93671362944444,-3.1124414325,0.009207362222237,FALSE,0.41488572,FALSE,0,0,52
"mp-3956","Sr3UO6",2.2134,20,3,323.820255504828,6.12161443693181,16.1910127752414,1,14,6.01187075440041,90,-7.727358576,-8.139558576,-3.53555631225,0,TRUE,2.2927034,FALSE,3e-07,0,208
"mp-3958","Er(SiOs)2",0,5,3,82.4687257350875,12.1595541581459,16.4937451470175,4,139,4.1628944549615,111.837577581564,-8.292857184,-8.292857184,-0.718239238000001,0,TRUE,7.06847865,FALSE,1.4e-06,0,158
"mp-3960","CaUO4",2.1039,6,3,76.3681675208104,7.43867402030104,12.7280279201351,2,166,6.30262152528451,35.7406700934275,-8.752233925,-9.210233925,-3.69627313583333,0,TRUE,4.23805998,FALSE,0,0,136
"mp-3962","LaPO4",4.486,24,3,306.588656343931,5.06687521893154,12.7745273476638,1,14,7.07797003,53.5076038443433,-8.06820086416667,-8.52620086416667,-3.50352345472222,0.0008808880555566,FALSE,4.35427987,FALSE,0,0,96
"mp-3963","K2CO3",3.649,24,3,372.183560876148,2.46647790062233,15.5076483698395,1,14,9.74207117,80.6390130596568,-6.15580269375,-6.49930269375,-2.117714440375,0,TRUE,0.09809253,FALSE,0,0,41
"mp-3967","NaNO",3.389,24,3,296.130486548793,2.37737660403612,12.3387702728664,1,14,9.297508,81.5331814566711,-5.60891838666667,-5.83791838666667,-0.969348743433908,0.0843164370833315,FALSE,1.0493018,FALSE,0.0007282,0,26
"mp-3970","K2TiF6",4.7349,9,3,128.477867610605,3.10262837007924,14.2753186234005,2,164,5.68505675,90,-5.63087987555556,-5.93887987555556,-3.54052835159259,0,TRUE,-2.72837669,FALSE,0,0,86
"mp-3972","Ce2SO2",0,5,3,94.272212045008,6.06452966324104,18.8544424090016,2,164,3.9792561,90,-8.23536505,-8.61076505,-3.431563930125,0,TRUE,7.78356497,TRUE,2,2,82
"mp-3974","Ba5B4O11",3.7917,240,3,3824.23022251144,4.72012328347798,15.9342925937977,7,19,9.73823651,90,-7.309950445125,-7.687800445125,-3.15149956477083,0,TRUE,1.70087068,FALSE,0.0007404,0,239
"mp-3975","K2TaF7",7.1493,40,3,618.592876676763,4.21054100362893,15.4648219169191,1,14,12.63593148,90.0654684493856,-5.936998931,-6.260398931,-3.51450610135,0,TRUE,-3.08014333,FALSE,0,0,146
"mp-3977","CsB3O5",5.304,36,3,490.288598944335,3.32366775959371,13.6191277484538,7,19,5.94401032,90,-7.5044493875,-7.88611605416667,-2.81200258296456,0,TRUE,-0.28958879,FALSE,0,0,97
"mp-3978","SrSiO3",4.6258,30,3,447.855710326581,3.64183887259681,14.9285236775527,1,15,7.13626051276484,71.4208343077301,-7.4213523,-7.8335523,-3.44257677658333,0,TRUE,1.02476629,FALSE,0,0,68
"mp-3980","LiSbF6",4.9334,8,3,98.0562115252087,4.10987306608917,12.2570264406511,2,148,5.35644336108575,55.7876654409201,-4.71198228875,-5.05848228875,-2.87013254979167,0,TRUE,-2.76114485,FALSE,0,0,99
"mp-3982","KCuO2",0.6204,8,3,137.87103294852,3.24332273163737,17.233879118565,7,63,4.38823913191086,90,-4.81289742375,-5.15639742375,-1.380651663875,0,TRUE,0.15242135,FALSE,0,0,56
"mp-3985","Tm(MnGe)2",0,5,3,89.1393456806146,7.90019834158669,17.8278691361229,4,139,4.04053494954896,109.137791853632,-6.877544972,-6.877544972,-0.468360628505748,0,TRUE,5.82660525,TRUE,7.2955722,3,126
"mp-3988","BaCu3O4",0,8,3,120.8551562711,5.38553116001186,15.1068945338874,7,65,6.14816159075298,90,-5.3642034025,-5.7077034025,-1.457284678125,0.0137628756249972,FALSE,2.77377399,TRUE,0.999584,3,138
"mp-3991","UMoC2",0,16,3,199.625070631596,11.9114676996919,12.4765669144747,7,62,3.21775615,90.0005887049327,-10.4486636375,-10.4486636375,-0.300065861249999,0,TRUE,10.59648973,FALSE,0.0093169,0,140
"mp-3992","PrSF",1.2541,6,3,110.349716184278,5.77754876981488,18.3916193640463,4,129,3.98126766,90,-6.59777769166667,-6.91944435833333,-3.30983282854167,0,TRUE,3.82995601,FALSE,0,0,84
"mp-3995","La(CuSi)2",0,5,3,84.8918205008446,6.30182421940672,16.9783641001689,4,139,4.14335863169162,111.126973707866,-5.389255744,-5.360855744,-0.563844443,0,TRUE,8.67720379,FALSE,5.3e-06,0,100
"mp-3996","GaAsO4",3.0694,18,3,246.776422827287,4.21181067549368,13.7098012681826,2,152,4.98590366,90,-6.06297860055556,-6.52097860055556,-1.94198372180556,0,TRUE,-0.54550917,FALSE,0,0,88
"mp-3997","Sm(CuSi)2",0,5,3,80.1179483501187,6.91473054945585,16.0235896700237,4,139,4.03029098143761,110.716966661253,-5.355125068,-5.326725068,-0.573197961,0,TRUE,7.09719254,FALSE,2.2e-06,0,105
"mp-3998","LaTaO4",3.3887,12,3,164.450944219723,7.75184966253391,13.7042453516436,7,36,7.63161356530798,90,-9.34469686833333,-9.80269686833333,-3.70594027166667,0.0092664545833329,FALSE,3.92473502,FALSE,0,0,154
"mp-3999","Y(SiPt)2",0,5,3,87.0268540453371,10.2128819129603,17.4053708090674,4,139,5.78133631168037,137.548297314773,-6.922322378,-6.922322378,-1.03044761533333,0.0581154939999946,FALSE,7.24265822,FALSE,0.0010763,0,131
"mp-4001","BaTaS3",0,10,3,238.430491389159,5.7731158767415,23.8430491389159,6,194,6.94578854,90,-6.720448309,-7.022248309,-1.785027874875,0,TRUE,5.09234009,FALSE,2e-07,0,161
"mp-4002","Li2ZrF6",6.4501,9,3,97.5789033096771,3.72845103904431,10.8421003677419,2,162,4.93340236,90,-6.02136251888889,-6.32936251888889,-3.6810936112963,0,TRUE,-2.6126721,FALSE,0,0,88
"mp-4004","Ag5SbS4",0.5945,20,3,444.785273043663,5.89392166328209,22.2392636521831,7,36,7.37412381833259,90,-3.58050182,-3.78170182,-0.297943747583333,0.0152850389999992,FALSE,3.3182075,FALSE,0.0031459,0,287
"mp-4006","ErPO4",5.9196,12,3,138.784497724918,6.27510662484428,11.5653748104098,4,141,5.67018362598309,106.127567644572,-8.01687493833333,-8.47487493833333,-3.51357891138889,0,TRUE,2.1234259,FALSE,1e-07,0,107
"mp-4007","Nd(SiNi)2",0,5,3,78.0892373582622,6.75789649265709,15.6178474716524,4,139,4.04208440652783,111.27939310468,-6.24788433,-6.21948433,-0.7836729595,0,TRUE,6.94611081,FALSE,1.13e-05,0,102
"mp-4008","ZnGeAs2",0.0011999999999998,8,3,180.385427253347,5.30038653730052,22.5481784066683,4,122,5.6732007115921,114.302806019376,-3.96536766625,-3.96536766625,-0.1651155975,0,TRUE,3.18402825,FALSE,0,0,95
"mp-4009","BaPdS2",0.3649,8,3,208.75574740353,4.8979900440237,26.0944684254413,7,63,5.65901306,115.327270086119,-5.06300842625,-5.31450842625,-1.4715693053125,0,TRUE,2.94562453,FALSE,0,0,118
"mp-4013","Nd(SiRu)2",0,5,3,86.5131662936904,7.72662718883498,17.3026332587381,4,139,4.20380124498602,111.530504695594,-7.720678428,-7.692278428,-0.858760713499998,0,TRUE,6.6948938,FALSE,2.2e-06,0,118
"mp-4014","Pr(CuSi)2",0,5,3,82.788790841055,6.50206414541777,16.557758168211,4,139,4.09546554818018,110.966736016521,-5.3507668,-5.3223668,-0.556375769,0,TRUE,7.11660493,FALSE,0,0,102
"mp-4016","TlGaS2",1.8553,32,3,806.670867633459,5.57009915620205,25.2084646135456,1,15,7.33028807366574,83.0482597906821,-4.0518043834375,-4.3033043834375,-0.887394657708334,0,TRUE,2.74895333,FALSE,0,0,128
"mp-4019","CaTiO3",2.3053,20,3,224.099737693001,4.02925941391082,11.20498688465,7,62,5.37204886,90,-8.0928821395,-8.5050821395,-3.55685053341667,0,TRUE,3.09815529,FALSE,0,0,58
"mp-4022","Zr2CoSi2",0,10,3,159.81376214956,6.18341045857723,15.981376214956,1,12,3.89316475725708,82.5612759031895,-7.906081636,-7.877681636,-0.866810613,0,TRUE,6.55408501,TRUE,1.7141501,2,81
"mp-4023","Dy2Fe14B",0,68,3,906.908272432424,8.18555348693074,13.3368863593003,4,136,8.730048,90,-8.01911942941176,-8.01911942941176,-0.108927524068628,0,TRUE,4.71827493,TRUE,124.334666,64,71
"mp-4024","DyAgTe2",0.895799999999999,8,3,238.309851971077,7.32430087169506,29.7887314963847,4,113,4.67198298,90,-4.3462283875,-4.5572283875,-1.12573973,0,TRUE,4.30147812,FALSE,0,0,165
"mp-4025","TmNiSb",0.255199999999999,3,3,61.0234008658474,9.50736549518835,20.3411336219491,3,216,4.41913283331501,60.0000118403406,-5.69548529666667,-5.75948529666667,-0.964494182222222,0,TRUE,6.59049888,FALSE,0,0,148
"mp-4026","KCrS2",1.1644,4,3,81.739739482668,3.15337658183018,20.434934870667,2,166,7.39042939962942,28.5953173131689,-5.694746675,-5.946246675,-1.1871601373125,0,TRUE,3.77838122,TRUE,3.0000001,1,59
"mp-4030","Rb2Pt3S4",1.4542,9,3,228.212918400557,6.43548052605344,25.3569909333953,7,69,6.33368444404374,102.931910972413,-4.79483348777778,-5.01838904333333,-0.938359313055556,0,TRUE,2.7420555,FALSE,0,0,241
"mp-4034","LaTe2Se",0,8,3,245.941559201197,6.38805167004622,30.7426949001496,7,63,4.33602025278017,90,-4.93215630875,-5.26115630875,-1.58152371641927,0,TRUE,5.78313238,FALSE,6e-07,0,143
"mp-4035","RbReO4",4.1199,12,3,225.102022280394,4.95239561273306,18.7585018566995,4,88,7.72638193885061,135.282874338285,-7.43321547416667,-7.89121547416667,-2.35591279041667,0,TRUE,-2.0413136,FALSE,0,0,136
"mp-4037","TmNiC2",0,4,3,46.3099411770914,9.02339760221781,11.5774852942728,7,38,3.4936995,106.065450276997,-7.5259703825,-7.5259703825,-0.347644610416666,0,TRUE,6.48963785,FALSE,0,0,103
"mp-4038","Sm3S3N",1.3713,28,3,626.158408980883,5.95395782824098,22.3628003207458,7,62,3.94811565,90,-6.92471392928571,-7.19185678642857,-2.205913510625,0.0007828094642885,FALSE,3.1543246,FALSE,0,0,163
"mp-4041","Yb(AlGe)2",0,5,3,104.201286076087,5.93265800072048,20.8402572152175,2,164,4.14493342,90,-4.087607194,-4.087607194,-0.432244064,0,TRUE,5.18275633,FALSE,1e-07,0,115
"mp-4043","NbCu3Se4",1.3604,8,3,181.82844767763,5.47384741833371,22.7285559597037,3,215,5.66526997,90,-5.06290864875,-5.29890864875,-0.751087278671874,0,TRUE,2.72415191,FALSE,0,0,201
"mp-4044","ErAgSe2",1.2801,16,3,389.762941168399,7.37978619646198,24.3601838230249,7,19,4.19417584,90,-4.797074440625,-5.033074440625,-1.43504999846354,0,TRUE,2.88274168,FALSE,0,0,149
"mp-4047","Cs2SiF6",6.8901,9,3,172.01129106833,3.93760200354407,19.1123656742589,3,225,6.24248263459266,60.0000010717443,-5.20829582,-5.51629582,-3.44018508898467,0,TRUE,-2.48760655,FALSE,0,0,114
"mp-4048","Sr6(RhO3)5",0,26,3,352.662295253849,6.02810698060351,13.5639344328403,2,155,7.07864128706661,86.3883447162089,-6.42123995192308,-6.81758610576923,-2.15763107735577,0.0004093743269253,FALSE,3.54112095,TRUE,0.9231934,1,251
"mp-4049","U2P2O9",0,26,3,406.558569346194,5.57109177283961,15.6368680517767,7,64,5.73490573989552,90,-8.75691716230769,-9.23253254692308,-3.23794612887821,0,TRUE,5.10717513,TRUE,7.9999995,4,171
"mp-4050","Eu(AsRu)2",0,5,3,94.7206458614343,8.83465273587623,18.9441291722869,4,139,4.17706844852751,109.751229536146,-8.330449734,-8.330449734,-0.705640996,0,TRUE,6.06765029,TRUE,6.9331868,1,140
"mp-4051","AlPO4",5.475,12,3,173.459842998063,2.33492146921577,14.4549869165052,7,20,4.99704215057497,90,-7.48545592416667,-7.94345592416667,-3.11918372722222,0.0024650675000152,FALSE,-0.51491557,FALSE,1e-07,0,52
"mp-4052","Rb2Mn3Se4",0,18,3,523.825032417683,4.13111303737884,29.1013906898713,7,72,6.20456804112972,74.7074563960848,-5.53717154055556,-5.74694931833333,-0.921309325907567,0,TRUE,1.96450388,TRUE,29.9999994,6,189
"mp-4053","YbSnPd2",0,4,3,73.4975906384437,11.4002568021247,18.3743976596109,3,225,4.70178503489624,59.9999899124901,-4.7976624775,-4.7976624775,-0.82042653875,0,TRUE,6.06641745,FALSE,1e-07,0,166
"mp-4054","YAl3Ni",0,20,3,346.447736259696,4.38168275180428,17.3223868129848,7,62,4.02710599,90,-5.295738009,-5.295738009,-0.599070952333334,0,TRUE,6.39052679,FALSE,8.8e-06,0,93
"mp-4056","CaSc2O4",3.458,28,3,331.175654867265,3.89066878856425,11.8277019595452,7,62,3.14637618,90,-8.31431423642857,-8.706885665,-3.78441524571429,0,TRUE,2.95338257,FALSE,0,0,65
"mp-4057","CsBF4",7.6306,24,3,419.009875167916,3.48285009381563,17.4587447986632,7,62,5.70422757005286,89.9989184571092,-5.54682730041667,-5.85482730041667,-3.31804229826628,0,TRUE,-3.55927816,FALSE,0,0,87
"mp-4064","Ca(NiP)2",0,5,3,70.4248379538274,5.17349767896336,14.0849675907655,4,139,3.88932038243649,111.078076588784,-5.729861054,-5.729861054,-0.851365403333333,0,TRUE,8.05160588,FALSE,0,0,63
"mp-4065","Dy(SiIr)2",0,5,3,81.8475886057238,12.2359061619533,16.3695177211448,4,139,4.06461818397962,110.783392158491,-7.719728438,-7.719728438,-1.092870186,0,TRUE,8.17668794,FALSE,2.6e-06,0,157
"mp-4066","KGaO2",3.1289,64,3,966.800111841137,3.86987588517685,15.1062517475178,7,61,5.52205541,90,-5.35782395953125,-5.70132395953125,-2.19335586153125,0,TRUE,-0.0052958,FALSE,0,0,58
"mp-4068","Na2GeS3",2.4515,24,3,559.855021950522,2.54857360828716,23.3272925812718,1,14,15.32306115,66.3184741770579,-4.11942875,-4.37092875,-1.09135740957974,0,TRUE,1.00446669,FALSE,0,0,75
"mp-4071","Er2(NiB2)3",0,11,3,112.730767533683,8.47666352705526,10.2482515939712,7,65,3.43400638,96.5992279627236,-6.63674334545455,-6.63674334545455,-0.586543501363636,0,TRUE,6.50844046,FALSE,0.005525,0,101
"mp-4072","Sm(SiRu)2",0,5,3,84.8645412821443,7.99643939192859,16.9729082564289,4,139,4.18885588797595,111.672007038426,-7.726424472,-7.698024472,-0.874419016999998,0,TRUE,6.6507523,FALSE,0,0,120
"mp-4073","Sm(CoB)2",0,5,3,61.3803541363755,7.84134568394222,12.2760708272751,4,139,3.55527589968481,108.970820249578,-6.977647238,-6.977647238,-0.518846184666667,0,TRUE,4.97039683,FALSE,2.2e-06,0,94
"mp-4075","TbZrSb",0,6,3,152.703880508763,8.08846511105358,25.4506467514605,4,139,4.28024953695948,103.965738423804,-6.57482485333333,-6.63882485333333,-0.868468863333334,0,TRUE,5.6121998,FALSE,3.88e-05,0,156
"mp-4076","VCoSb",0,3,3,49.1646465512376,7.82347656718369,16.3882155170792,3,216,4.11202645363011,60.0000065672895,-6.95978382333333,-7.02378382333333,-0.250042121666667,0.0057691352777764,FALSE,8.02623499,TRUE,1.0003715,2,101
"mp-4077","Cd(CN)2",6.0857,10,3,269.915657688492,2.02336298365793,26.9915657688492,3,215,6.462631,90,-6.850798089,-6.995198089,0.215444029999999,0.280264627499998,FALSE,-4.59680668,FALSE,0.0009062,0,61
"mp-4078","La2SO6",4.688,18,3,246.176810234164,5.47547005732407,13.6764894574536,1,15,4.28002676,106.340220879619,-7.59539070222222,-8.05339070222222,-3.19910221951389,0,TRUE,4.79693769,FALSE,0,0,113
"mp-4079","Sc3AlC",0,5,3,91.7029476889367,3.14822246413147,18.3405895377873,3,221,4.5094935,90,-6.988557656,-6.988557656,-0.594227928500001,0,TRUE,4.49284498,FALSE,1.03e-05,0,61