"material_id","formula_pretty","band_gap","nsites","nelements","volume","density","density_atomic","crystal_symmetry","symmetry_number","sides_abc","angles_abc","uncorrected_energy_per_atom","energy_per_atom","formation_energy_per_atom","energy_above_hull","is_stable","efermi","is_magnetic","total_magnetization","num_magnetic_sites","atomic_number"
"mp-3736","ZrAlCu2",0,4,3,59.6115810893356,6.83300355975613,14.9028952723339,3,225,4.38478687980754,60.0000059505651,-5.4758876825,-5.4758876825,-0.3529652325,0.0031096151376139,FALSE,7.13618579,FALSE,2.4e-06,0,82
"mp-3739","NdCuSe2",0.7529,16,3,359.71227538463,6.75286847321308,22.4820172115394,1,14,6.72636722237556,90,-5.20309263875,-5.43909263875,-1.47429837429687,0,TRUE,4.36565291,FALSE,0,0,123
"mp-3740","TiNi2Sn",0,4,3,57.1398803001616,8.25225710875099,14.2849700750404,3,225,4.32332722770692,60,-6.29861491,-6.29861491,-0.432280602083334,0.0358548411607131,FALSE,9.10216642,FALSE,0.0055841,0,100
"mp-3742","SrFe12O19",1.1402,64,3,727.376625174268,4.84776378065614,11.3652597683479,6,194,5.99773845618471,90,-6.64417329109375,-7.89807954109375,-1.7319284946224,0.072471224726561,FALSE,4.08173694,TRUE,120.0000628,62,38
"mp-3744","NaNbO2",1.3781,8,3,88.2693972494368,5.56445039130099,11.0336746561796,6,194,2.97508111,90,-7.51422364625,-7.85772364625,-2.52842170726293,0,TRUE,5.56852673,FALSE,0,0,60
"mp-3747","Ti3AlC2",0,12,3,152.170075835435,4.24718777046541,12.6808396529529,6,194,3.0715885,90,-8.41024293,-8.41024293,-0.7620124525,0,TRUE,6.95563937,FALSE,2e-07,0,63
"mp-3748","AlCuO2",1.7978,4,3,39.5066450766794,5.15001391633887,9.87666126916986,2,166,5.88135223693066,27.96363060537,-6.5089305525,-6.8524305525,-2.417890571875,0,TRUE,6.36032058,FALSE,0,0,50
"mp-3751","AlTlF4",4.4333,12,3,162.305302372784,6.28914408263918,13.5254418643986,1,15,5.05795091967192,110.075028822201,-5.26788110833333,-5.57588110833333,-3.28352530055556,0,TRUE,0.9424893,FALSE,0,0,121
"mp-3756","SmTaO4",4.0536,12,3,154.684979448813,8.48718725140709,12.8904149540677,1,15,5.10577169052724,111.990193129915,-9.2998247975,-9.7578247975,-3.69730502916667,0.0048200816666668,FALSE,2.07252799,FALSE,0,0,159
"mp-3758","Eu(NiP)2",0,5,3,73.4626850448428,7.48861560621279,14.6925370089686,4,139,3.93781084586786,110.995310679803,-7.418505474,-7.418505474,-0.889729439333333,0,TRUE,7.59946686,TRUE,6.7224517,1,106
"mp-3759","MgGeO3",3.6339,10,3,101.029905765374,4.76460596918633,10.1029905765374,2,148,5.47043303883852,54.5417420765902,-6.341212117,-6.753412117,-2.54073730925,0.0200741430000039,FALSE,3.43598874,FALSE,0.0003523,0,60
"mp-3762","VCu3S4",1.0358,8,3,154.844166419479,3.96613545296955,19.3555208024348,3,215,5.36988456,90,-5.34617063625,-5.59767063625,-0.8567549428125,0,TRUE,3.53810757,FALSE,0,0,129
"mp-3764","Te3P2O11",3.289,64,3,894.297007352046,4.61039026661358,13.9733907398757,1,14,7.35496419,81.9913835537253,-6.204062413125,-6.676374913125,-2.00949375580729,0,TRUE,2.57328496,FALSE,0,0,119
"mp-3765","Sr(PO3)2",5.4627,72,3,995.134681543578,3.27809689853915,13.8213150214386,1,14,7.9430664,89.3630301002762,-7.22534084,-7.68334084,-2.99487075842593,0,TRUE,0.44759215,FALSE,0,0,69
"mp-3768","KN3O4",2.8552,32,3,474.578594469962,2.03102954913385,14.8305810771863,1,14,9.603996,51.1515527766857,-6.176473635625,-6.519973635625,-0.78164381475,0.239350688124997,FALSE,-1.33578961,FALSE,0.0031885,0,57
"mp-3769","ErBRh3",0,5,3,71.9368583489622,11.2366319421724,14.3873716697924,3,221,4.15895118,90,-7.482302914,-7.482302914,-0.814296075833333,0,TRUE,5.74681413,TRUE,0.6594741,4,163
"mp-3770","Li2Ce2Ge3",0,14,3,285.728949472546,5.95146177520358,20.4092106766104,7,63,9.59382008942345,90,-4.85483129071429,-4.85483129071429,-0.632958775238096,0.0411517450420149,FALSE,5.17797777,TRUE,3.33999,4,125
"mp-3771","MgTiO3",3.5295,10,3,102.518619146785,3.8928989368346,10.2518619146785,2,148,5.47098129421684,55.0715816587664,-7.824705655,-8.236905655,-3.36973801491667,0,TRUE,2.83578089,FALSE,0,0,50
"mp-3772","Cd(GaSe2)2",1.3487,7,3,182.567381380663,5.16348013189759,26.0810544829518,4,82,5.80225749457033,115.254123352158,-3.61561746,-3.88533174571428,-0.890656357767857,0,TRUE,1.1460399,FALSE,0,0,113
"mp-3775","Na2SiF6",6.9951,27,3,333.339550408212,2.81040849112035,12.3459092743782,2,150,8.80252010039453,89.9988111680522,-5.23870170925926,-5.54670170925926,-3.37567477349298,0,TRUE,-2.36359488,FALSE,0,0,70
"mp-3776","Er2Mo2C3",0,7,3,101.031622666009,9.2440082484784,14.433088952287,1,12,3.31344865278466,110.979825536907,-8.73603892285714,-8.73603892285714,-0.3770768775,0,TRUE,5.63080968,FALSE,0,0,122
"mp-3777","BaSiN2",2.9202,16,3,246.684382525217,5.20813292117399,15.417773907826,7,64,5.62590576,90,-7.130947308125,-7.311447308125,-1.307126603125,0,TRUE,4.54581667,FALSE,1e-07,0,77
"mp-3778","Mg3(Al9Cr)2",0,46,3,745.323800964396,2.95235841372613,16.202691325313,3,227,10.1770058659678,59.999925508652,-4.07888863847826,-4.07888863847826,-0.0994408110869568,0,TRUE,7.36389426,TRUE,5.6433948,4,152
"mp-3779","CrSiTe3",0,10,3,293.248805390924,5.24219001666974,29.3248805390924,2,148,8.25989701330844,48.8466389084111,-5.087400708,-5.340600708,-0.438944072,0,TRUE,4.38992867,TRUE,6.0000001,2,142
"mp-3782","Nd3Sb5O12",3.1547,40,3,667.858805638358,6.13394968964353,16.696470140959,3,217,9.53755188814367,109.471001625257,-6.91037948475,-7.32257948475,-2.607093833125,0,TRUE,3.56127454,FALSE,0,0,324
"mp-3785","TlGaTe2",0.5556,8,3,254.151989844084,6.91659970781029,31.7689987305105,4,140,6.87600787452209,75.9776879917398,-3.28877932625,-3.49977932625,-0.580441587291666,0,TRUE,4.03189904,FALSE,0,0,164
"mp-3787","RbFe2S3",0,12,3,289.819839056357,3.36156273002259,24.1516532546964,7,63,7.35504041514281,90.0008754189557,-5.74011489,-5.99161489,-0.9366272078125,0,TRUE,3.00422885,TRUE,0,4,95
"mp-3788","SrAl4O7",3.7508,24,3,314.052293991257,3.25223180769972,13.0855122496357,1,15,7.93591749490488,76.7684764272172,-7.33940995458333,-7.74015995458333,-3.46527514190972,0,TRUE,2.38988791,FALSE,0,0,125
"mp-3789","Zn2SiO4",3.1773,42,3,523.073009107712,4.24570923859573,12.4541192644693,2,148,8.63505482845474,107.863498726737,-6.01693047714286,-6.40950190571429,-2.44785046357143,0,TRUE,0.69647821,FALSE,0,0,68
"mp-3790","SrNb8O14",0,46,3,578.89996411725,6.05161766174177,12.5847818286359,7,55,6.00097881000001,90.0000645501916,-9.03490112608696,-9.45307503913044,-2.85509348561594,0,TRUE,4.44178824,FALSE,0,0,325
"mp-3791","ScCo2Sn",0,4,3,59.1787945336256,7.89971120001771,14.7946986334064,3,225,4.37415013751856,60.0000005841385,-6.549364115,-6.549364115,-0.4096949775,0,TRUE,7.68608725,TRUE,1.1536143,3,98
"mp-3792","YAlO3",5.5402,20,3,202.911749031405,5.36466564646124,10.1455874515702,7,62,5.17603105,90,-8.3197481845,-8.7319481845,-3.72152556908333,0.0188358380500002,FALSE,4.50416888,FALSE,0,0,68
"mp-3795","NaZnF3",3.7676,20,3,230.075798391036,4.19744073330682,11.5037899195518,7,62,5.35051557,90,-4.15537325,-4.43257325,-2.76923208881034,0,TRUE,-1.12786622,FALSE,0,0,59
"mp-3797","K3AsS4",2.0132,32,3,909.649394307824,2.34008290010316,28.4265435721195,7,62,9.13702589,90,-3.9381783090625,-4.1896783090625,-1.122663969875,0,TRUE,0.55126212,FALSE,0,0,119
"mp-3799","GdSF",0,6,3,100.790026477797,6.86402328083916,16.7983377462995,4,129,3.83342101,90,-9.681107285,-10.0027739516667,-3.294756926875,0,TRUE,3.33099991,TRUE,14.0000001,2,89
"mp-3800","Yb3Al5O12",0,80,3,887.747068588896,6.3299564908899,11.0968383573612,3,230,10.4866565811048,109.471220634491,-6.94656003975,-7.35876003975,-3.2234116135,0.0756890163465913,FALSE,2.29805421,TRUE,12.0018916,48,192
"mp-3802","Ta4AlC3",0,16,3,204.796184896955,12.7592289310965,12.7997615560597,6,194,3.12943415,90,-10.432424763125,-10.432424763125,-0.574589409687501,0,TRUE,7.77554866,FALSE,2e-07,0,244
"mp-3803","Ta4AlC3",0,16,3,206.416275708345,12.6590861033047,12.9010172317715,6,194,3.10753899486796,90,-10.355414559375,-10.355414559375,-0.4975792059375,0.0770102037500013,FALSE,7.53847266,FALSE,0.0085223,0,244
"mp-3804","Sr(PRu)2",0,5,3,92.4740776696635,6.31554375384431,18.4948155339327,4,139,4.0305777117138,108.455948185571,-7.14057663,-7.14057663,-0.927595920666666,0,TRUE,6.30836174,FALSE,0,0,97
"mp-3805","Al(FeB)2",0,5,3,45.1911251523401,5.88995476593199,9.03822503046803,7,65,2.86232583,104.815893894937,-7.210063552,-7.210063552,-0.401183193666665,0,TRUE,8.25996647,TRUE,2.9910618,2,44
"mp-3807","Al2CdSe4",1.7412,14,3,318.824005796326,5.023055347762,22.7731432711661,3,227,7.66811522607758,60.0000064236813,-3.96470051071429,-4.23441479642857,-1.03474517776786,0.0460461392857141,FALSE,2.83157613,FALSE,2e-07,0,163
"mp-3808","K2UO4",1.9773,7,3,124.030259513643,5.09049429272296,17.718608501949,4,139,4.3275355614284,107.252560835863,-7.43108696285714,-7.82365839142857,-3.066663713,0,TRUE,1.56913522,FALSE,0,0,135
"mp-3810","Hg(AsO3)2",0.7083,9,3,103.821480848545,7.14027372011808,11.5357200942828,2,162,4.87428355,90,-5.37815213333333,-5.83615213333333,-1.46925775083333,0,TRUE,2.22857121,FALSE,0,0,129
"mp-3813","Ba2ZrS4",0.6025,7,3,197.65268536054,4.15140048208728,28.2360979086486,4,139,4.9892002789565,106.684696054604,-6.01976582,-6.30719439142857,-2.17413010892857,0.0015515849999934,FALSE,2.41160119,FALSE,0,0,144
"mp-3816","Er6Ni2Sn",0,18,3,444.750305358978,9.25682819118221,24.708350297721,7,71,8.34028053816687,113.055373608155,-5.19621909222222,-5.19621909222222,-0.421090417222223,0.0158826329629633,FALSE,4.46162983,FALSE,0.2526607,0,418
"mp-3817","La2Au5F21",1.7541,112,3,1944.23586606502,5.67661318341075,17.359248804152,4,92,8.539883,90,-4.28835304026786,-4.63485304026786,-2.26405009285714,0,TRUE,-1.59595011,FALSE,0.0230238,0,382
"mp-3821","K2PtF6",2.5717,9,3,131.16901761462,4.90267189949528,14.5743352905133,2,164,5.75991883,90,-4.32328322555556,-4.63128322555556,-2.43563822344444,0,TRUE,-1.06482487,FALSE,0,0,142
"mp-3822","SrCO3",4.4416,20,3,258.447569119548,3.79409342706243,12.9223784559774,7,62,5.11695695,90,-7.4402210275,-7.8524210275,-2.70077601158333,0,TRUE,1.1268441,FALSE,0,0,60
"mp-3824","Ta9(NiS3)2",0,17,3,302.116094225104,10.6536386299043,17.7715349544179,6,189,10.1498084029531,90,-9.16206614941176,-9.33959556117647,-0.922009018161764,0,TRUE,6.07136862,FALSE,1.2e-06,0,644
"mp-3826","Ce(SiPd)2",0,5,3,88.8612207269737,7.64530760598291,17.7722441453947,4,139,4.23563072916151,111.462020380656,-6.338807662,-6.310407662,-0.881709895,0,TRUE,7.43495841,TRUE,0.8542352,1,118
"mp-3827","KFeS2",0,8,3,193.201750317033,2.7344206630585,24.1502187896291,1,15,6.54471751633292,78.2026473607353,-5.21341719,-5.46491719,-1.0015872173125,0.0040891905357192,FALSE,2.2472572,TRUE,6.0000001,2,61
"mp-3828","BaAl2O4",3.9448,14,3,209.630930079005,4.04439517634545,14.9736378627861,6,182,5.20973849,90,-7.22363954214286,-7.61621097071428,-3.44522790714286,0.0036500503571428,FALSE,1.81541538,FALSE,0,0,93
"mp-3829","CdSnAs2",0.0062999999999999,8,3,227.446022291946,5.56269070526115,28.4307527864933,4,122,6.14608989393451,114.446078373752,-3.694455995,-3.694455995,-0.13178138875,0,TRUE,2.94334634,FALSE,0,0,131
"mp-3830","NiAsS",0,12,3,182.697201699118,6.02347731646983,15.2247668082598,3,198,5.67427795000191,89.9998710555008,-5.18562998583333,-5.3532966525,-0.494728335208332,0,TRUE,7.11848588,FALSE,0.001418,0,77
"mp-3831","SmPO4",5.4668,24,3,284.390330098788,5.72990383634599,11.8495970874495,1,14,6.89068807,53.822606010897,-7.9844855225,-8.4424855225,-3.45604494138889,0.0142961574999933,FALSE,2.56682864,FALSE,0,0,101
"mp-3833","Mg(AlSi)2",0,5,3,96.4519481212066,2.31453427449404,19.2903896242413,2,164,4.08337656360615,90,-3.995537474,-3.967137474,0.0212760799999998,0.0598937020000001,FALSE,5.90586732,FALSE,0.0007983,0,39
"mp-3834","BaZrO3",3.0377,5,3,74.7454632414152,6.1437942922873,14.949092648283,3,221,4.21238715,90,-8.289080686,-8.701280686,-3.63993234525,0,TRUE,2.15629621,FALSE,0,0,112
"mp-3835","Ba(Mo3S4)2",0,15,3,302.829361557106,5.31609956770078,20.1886241038071,2,148,6.71685884100631,88.7602944731863,-7.56609684533333,-7.834363512,-1.16206520966667,0.0023239960000278,FALSE,5.26705367,TRUE,1.885786,6,188
"mp-3838","Li5ReN4",2.8473,20,3,214.669494640719,4.28442520188517,10.7334747320359,7,59,4.86811796,90,-6.1955729845,-6.3399729845,-0.806460862666667,0,TRUE,1.08375189,FALSE,0,0,108
"mp-3839","GaCuTe2",0.2058,8,3,218.289717128594,5.91020006941535,27.2862146410742,4,122,6.0253195601453,114.130530472958,-3.6379445025,-3.8489445025,-0.495465882708333,0,TRUE,4.43099855,FALSE,0,0,112
"mp-3846","LaBPd3",0,5,3,86.1995303477091,9.03431546099903,17.2399060695418,3,221,4.417416,90,-5.99322739,-5.99322739,-0.562218528833333,0.1440842552,FALSE,6.92841046,FALSE,0.0031814,0,154
"mp-3847","DyCoC2",0,4,3,47.4497358260886,8.58986750880673,11.8624339565221,7,38,3.5589037,106.302099008535,-7.8889868125,-7.8889868125,-0.3458779075,0,TRUE,5.51978552,FALSE,6.4e-06,0,99
"mp-3848","BaGe4O9",3.0551,42,3,562.039463370038,5.0688526348789,13.3818919850009,2,150,11.6724120288489,89.9995510567679,-6.55143378166667,-6.99307663880952,-2.35512772729167,0,TRUE,0.93513528,FALSE,0,0,216
"mp-3849","TlFeS2",0,8,3,184.529152477048,5.83766436355315,23.0661440596309,1,12,6.50470466283858,64.4887727504613,-5.1470815225,-5.3985815225,-0.622190499895833,0.0770734265277779,FALSE,4.16938168,FALSE,0.0002058,0,123
"mp-3852","Tb3(CuGe)4",0,11,3,192.537085899328,8.8101154248648,17.5033714453934,7,71,4.19258322538451,114.508258709812,-5.07027921,-5.07027921,-0.634639537272727,0,TRUE,5.91979668,FALSE,1e-07,0,255
"mp-3854","Y(MnSi)2",0,5,3,79.0508849754308,5.35552912717051,15.8101769950862,4,139,3.88028242754397,109.117517849376,-7.761870394,-7.733470394,-0.605242842505747,0,TRUE,6.42527359,TRUE,4.4973265,2,78
"mp-3855","Na2BeF4",0,28,3,334.603323555958,2.60016859228273,11.9501186984271,1,14,7.91401356,61.6110542409957,-5.00775689142857,-5.27175689142857,-3.26741698830049,0.0031524310714257,FALSE,-2.86655015,FALSE,0,0,42
"mp-3856","CaMo5O8",1.0922,56,3,816.216753395893,5.27140713748504,14.5752991677838,1,14,8.45788283249112,90,-7.04861004285714,-8.5847529,-1.74137003428571,0.277825033214281,FALSE,4.07573731,TRUE,56.002735,20,244
"mp-3857","Ba3(PO4)2",5.1422,13,3,193.220766920673,5.17293184756744,14.8631359169749,2,166,7.75507638376445,42.5602969321528,-7.19249139615385,-7.61526062692308,-3.29548835589744,0,TRUE,2.029845,FALSE,1e-07,0,151
"mp-3858","NaTaO3",2.6172,20,3,234.061035985676,7.14940559405354,11.7030517992838,7,62,5.45388623,90,-8.2612985635,-8.6734985635,-3.06942475206035,0,TRUE,1.75962525,FALSE,0,0,100
"mp-3859","Ca2B2O5",4.7423,36,3,428.650575832771,2.81669505045969,11.9069604397992,1,14,5.18531569,86.7243967959474,-7.53362137277778,-7.91528803944444,-3.23712949967593,0.0063566433333335,FALSE,1.39243328,FALSE,0,0,57
"mp-3861","Al(MoS2)4",0,13,3,236.201979205773,4.69095922147058,18.1693830158287,3,216,6.93850933202356,60,-7.00034091384615,-7.30987937538462,-1.13912743653846,0.0276289978205133,FALSE,6.04275708,TRUE,0.9989486,4,71
"mp-3862","Ca(AlGe)2",0,5,3,107.712286208279,3.6894769588583,21.5424572416557,2,164,4.16967076,90,-4.139420586,-4.139420586,-0.390859136,0,TRUE,5.35576112,FALSE,0,0,65
"mp-3867","Pr2Co7B3",0,24,3,292.574845017667,8.24983902501359,12.1906185424028,6,191,5.15105792693598,90,-6.89220705291667,-6.89220705291667,-0.279022770624999,0.0324545605275536,FALSE,5.48858878,TRUE,7.5156328,17,231
"mp-3868","Pr6Fe13Ag",0,40,3,765.056670216036,7.28976523861636,19.1264167554009,4,140,13.0477310964834,143.94720863675,-7.087217381,-7.087217381,-0.0058040678333327,0.0186228452500003,FALSE,4.16314719,TRUE,52.5018722,38,342
"mp-3869","TbBRh3",0,5,3,72.994065455282,10.884304689644,14.5988130910564,3,221,4.17922594,90,-7.467043082,-7.467043082,-0.785706785833334,0,TRUE,5.80939212,FALSE,0.000696,0,160
"mp-3870","Sr2Nb2O7",2.6844,22,3,310.745949480794,5.05567725398412,14.1248158854906,7,36,13.64793068145,90,-8.15620051909091,-8.59338233727273,-3.3017079767803,0,TRUE,1.45573385,FALSE,0,0,127
"mp-3871","Ti2SnC",0,8,3,119.196917665909,6.30950671424506,14.8996147082386,6,194,3.17017283,90,-7.9795279975,-7.9795279975,-0.722222652291667,0,TRUE,8.60997873,FALSE,0,0,78
"mp-3872","Mg(AlS2)2",2.9567,28,3,536.977979359377,2.55465180117459,19.1777849771206,7,62,5.91733004,90,-4.85311956285714,-5.14054813428571,-1.4780865375,0,TRUE,3.76302559,FALSE,0,0,41
"mp-3879","Ba2CuF6",0.6278,18,3,274.299164801578,5.47489714135294,15.2388424889766,7,64,5.9252936100352,110.232990458482,-5.24151133111111,-5.54951133111111,-3.39328573611111,0,TRUE,0.65681141,TRUE,2.0000005,2,130
"mp-3880","Cr2CuSe4",0,14,3,278.761593655263,5.75881615912575,19.9115424039474,3,227,7.33245451231718,59.9999822622222,-5.82438101642857,-6.09409530214286,-0.752817084910714,0,TRUE,4.11097319,TRUE,10.5620089,6,155
"mp-3881","BaZnF4",4.5489,12,3,178.849271258194,5.17577072376788,14.9041059381829,7,36,4.22420673831368,90,-4.88991196416667,-5.19791196416667,-3.3938062275,0,TRUE,-1.18693553,FALSE,0,0,113
"mp-3882","Sm(SiRh)2",0,5,3,83.3068797235113,8.21912910521284,16.6613759447023,4,139,4.07222250327413,110.587493865122,-7.163756744,-7.135356744,-1.075789157,0,TRUE,6.87537089,FALSE,0,0,121
"mp-3884","Ho2Sn2O7",2.7013,22,3,278.614901156187,8.09694715508882,12.6643136889176,3,227,7.33116700040865,60,-7.30390126272727,-7.74108308090909,-3.03101195102273,0,TRUE,4.18808991,FALSE,0,0,165
"mp-3886","Zr2AlC",0,8,3,139.144687597495,5.28529221577188,17.3930859496869,6,194,3.31940396,90,-8.16086417875,-8.16086417875,-0.643453533125,0.0137561951388871,FALSE,4.84785634,FALSE,1e-07,0,59
"mp-3887","Li3GaN2",3.4252,48,3,438.109597182234,3.59494549635745,9.12728327462987,3,206,8.28699075606554,109.470352360564,-4.76963431520833,-4.88996764854167,-0.651991903125,0,TRUE,2.27836453,FALSE,0,0,44
"mp-3889","NaBO2",4.1041,24,3,255.334350953214,2.56752187742057,10.6389312897172,2,167,7.15149795912979,111.728768045915,-6.7435815275,-7.0870815275,-2.6132579058046,0,TRUE,0.75070458,FALSE,0,0,24
"mp-3890","Sm2Cr2Fe15",0,19,3,255.70907063375,8.06788932567297,13.4583721386184,2,166,6.40080617415181,82.2863161431587,-8.15572846315789,-8.15572846315789,0.0439339242105272,0.0439339242105276,FALSE,4.74952627,TRUE,27.9735032,19,86
"mp-3891","EuTl2Pd",0,8,3,201.17569438201,11.0135534812867,25.1469617977512,7,63,4.43233672,90,-5.48662243625,-5.48662243625,-0.446079960416667,0,TRUE,5.60989206,TRUE,14.2666978,2,190
"mp-3893","Tb(CoB)2",0,5,3,59.0432520502538,8.39262161336327,11.8086504100508,4,139,3.53782979958883,109.346611711046,-6.9993464,-6.9993464,-0.557389353666666,0,TRUE,5.28521658,FALSE,0,0,97
"mp-3895","Ho(SiRh)2",0,5,3,80.5492997972859,8.80087830877366,16.1098599594572,4,139,4.02915315055879,110.616076793584,-7.150238514,-7.150238514,-1.11790638,0,TRUE,7.0917583,FALSE,1e-07,0,126
"mp-3896","Y(SiIr)2",0,10,3,162.941035034221,10.7925355013107,16.2941035034221,4,129,4.0954419,90,-8.064839257,-8.064839257,-1.06604415033333,0.0274357090000005,FALSE,7.7495167,FALSE,1e-07,0,130
"mp-3897","SmPS4",2.2148,48,3,1136.86899561237,3.61760265121664,23.6847707419243,4,142,12.3241484384495,127.715504219624,-5.497759470625,-5.83309280395833,-1.38681145243056,0,TRUE,2.7620766,FALSE,0,0,125
"mp-3901","NdNbO4",3.6592,12,3,161.742237532347,6.18347652621703,13.4785197943622,1,15,5.20644902771129,112.285892303418,-8.83640799833333,-9.29440799833333,-3.51837344541667,0,TRUE,1.88664957,FALSE,0,0,125
"mp-3904","Mg2GeO4",3.0734,14,3,140.373748892743,4.38274077910295,10.0266963494816,3,227,5.83355939710877,59.9999998142615,-6.28145679714286,-6.67402822571429,-2.72969354,0.0003451200000004,FALSE,2.81907023,FALSE,0,0,68
"mp-3907","Er(SiIr)2",0,5,3,81.0471425093056,12.454256719339,16.2094285018611,4,139,4.055244849461,110.830602473302,-7.704381936,-7.704381936,-1.08533729,0,TRUE,8.18495728,FALSE,9e-07,0,159
"mp-3909","ZrAlCo2",0,4,3,55.1390522002315,7.10941962775087,13.7847630500579,3,225,4.27226481757361,59.9999852465514,-7.1484381675,-7.1484381675,-0.520960155000001,0,TRUE,6.03449555,TRUE,0.9997091,3,80
"mp-3910","Ce(Al10Cr)2",0,46,3,740.655690456958,3.51426228891859,16.1012106621078,3,227,10.1557170233214,59.9998997176115,-4.52516818869565,-4.52516818869565,-0.170789897608695,0,TRUE,8.21337627,TRUE,5.4303479,6,82